# vtk DataFile Version 2.0
Function: z = f(x,y,z)
ASCII
DATASET STRUCTURED_POINTS
DIMENSIONS 30 30 1
ORIGIN 0 0 0
SPACING 0.05 0.05 0.05
POINT_DATA 900
SCALARS density float
LOOKUP_TABLE default
0.102430824038
0.306494630846
0.509536472388
0.708511326244
0.900189258728
1.08137231044
1.2491193264
1.40094345046
1.53495154366
1.64990460328
1.74519166015
1.82072430081
1.87677236558
1.91377119958
1.93213538526
1.93211237984
1.91370218332
1.87665733848
1.82056326287
1.74498461137
1.64965154366
1.5346524732
1.40059836915
1.24872823425
1.08093520746
0.899706144901
0.707982201577
0.508961336879
0.305873484497
0.101763666849
0.101445733695
0.304218178576
0.510666180681
0.716066877169
0.915020469582
1.10205387838
1.27225008489
1.42179781492
1.5483698112
1.6512673636
1.73130893205
1.790484664
1.83143877819
1.85687121632
1.86896356873
1.86892971153
1.85676964472
1.83126949218
1.79024766359
1.73100421724
1.65089493438
1.54792966758
1.42128995691
1.27167451247
1.10141059155
0.914309468356
0.715288161541
0.50981975065
0.303304034142
0.100463874859
0.100451982628
0.301972875095
0.511866847277
0.72373319591
0.930002257764
1.12292583315
1.29561103973
1.44292218526
1.56209789411
1.6529797488
1.71781563836
1.7606742711
1.78657424422
1.800480096
1.80634042465
1.80633552518
1.80046539759
1.78654974687
1.76063997482
1.71777154313
1.65292585464
1.56203420101
1.44284869322
1.29552774875
1.12283274323
0.929899368904
0.723620508111
0.511744360539
0.301840589418
0.100309898013
0.0994237655644
0.299718696143
0.513084228927
0.731441820231
0.945051942053
1.14389127455
1.31909107174
1.46419122328
1.57599623524
1.65488798275
1.70454378392
1.731110908
1.74198233057
1.74438718652
1.74404108194
1.74409073072
1.74453613289
1.74223057451
1.73145844951
1.70499062302
1.65543411942
1.57664166948
1.4649359551
1.31993510114
1.14483460153
0.946094566606
0.73258374236
0.514325448633
0.301059213425
0.100863580423
0.0983337101839
0.297409880715
0.514254175944
0.73911021176
0.960068595391
1.16483088685
1.34255247647
1.48544883587
1.58989035278
1.65679919495
1.69128210959
1.70156492683
1.6974150007
1.68832606267
1.68178072669
1.68189212557
1.68866025933
1.69797199514
1.70234471904
1.69228469957
1.65802458271
1.59133853831
1.48711981918
1.34444625756
1.16694746571
0.962407972028
0.741672386172
0.517039148131
0.300417650677
0.101564277921
0.097154715136
0.295000046783
0.515311025618
0.746653427108
0.97494799371
1.18562116529
1.36585246851
1.50653295693
1.60359889995
1.65851275794
1.67781070721
1.67179713878
1.65261378511
1.63201897425
1.61926232804
1.61942339819
1.6325021847
1.65341913586
1.67292462982
1.67926033855
1.66028452958
1.60569281189
1.50894900916
1.36859066105
1.18868149812
0.978330466839
0.750358040534
0.519337779342
0.299348940805
0.101825749456
0.0958618553781
0.292447524696
0.516196363692
0.753996307411
0.98959823354
1.20615346179
1.38886565517
1.52730144916
1.61696299485
1.65985304522
1.66393720566
1.64159842813
1.60735282347
1.57522331634
1.55622653646
1.55640845442
1.57576907024
1.6082624133
1.64287185389
1.66557446735
1.66185414284
1.6193279284
1.53003021865
1.39195826059
1.20960990313
0.993418510814
0.758180420616
0.520744312828
0.297359309762
0.101137476376
0.0944340558585
0.289720015519
0.51686666735
0.761084105971
1.0039533443
1.2263505819
1.41150361811
1.54765467035
1.62987177137
1.66069796679
1.64952829109
1.61082425711
1.56147635415
1.51777210342
1.49249514253
1.49265786099
1.51826025879
1.56228994642
1.6119632863
1.65099275719
1.66248786979
1.63198711129
1.55009544717
1.41426983185
1.22944223254
1.00737043185
0.764826630434
0.520934628722
0.294113413801
0.0991528910505
0.0928552730265
0.286797796735
0.517298535104
0.767889742332
1.01798256656
1.24617808721
1.43372823996
1.56755082415
1.64227975422
1.66099836839
1.63453113025
1.57941811354
1.51492418596
1.45960146534
1.42800059715
1.4281003898
1.45990084329
1.5154231492
1.58011666207
1.63542926408
1.66209608752
1.64357705865
1.56904771388
1.43542471499
1.24807414754
1.02007821218
0.770184973248
0.519793351317
0.289492198245
0.0957492598341
0.0911150068591
0.28367494707
0.517490624433
0.774416452722
1.03169371531
1.26564837147
1.45555649321
1.5870114618
1.65421307337
1.66078495875
1.61898101062
1.54741986363
1.4677407639
1.40076042584
1.36279650281
1.36279422211
1.40075358373
1.46772936039
1.54740389871
1.6189604843
1.66075987102
1.65418342423
1.58697725126
1.45551772126
1.26560503812
1.03164582056
0.774363996561
0.517433606867
0.283613368099
0.0910488664823
0.0892080796514
0.280358402626
0.517461985244
0.780695400856
1.04513006807
1.28481682599
1.47705588298
1.60611620224
1.66576346157
1.66016158442
1.60299389256
1.51495758155
1.42006627593
1.3414012867
1.29704727508
1.29691588729
1.34100712332
1.41940933697
1.514037867
1.60181140243
1.6587163187
1.66405542026
1.60414538535
1.4748222905
1.28232045793
1.04237092442
0.777673481622
0.514177290424
0.276810932221
0.0853978336609
0.0871337421368
0.27686502906
0.517247098116
0.786778682234
1.05836133525
1.30377077613
1.49833134955
1.62498760066
1.67707108893
1.65928603043
1.58674517604
1.48222428219
1.37211135187
1.28175229264
1.23099877362
1.23072885993
1.28094255154
1.37076178337
1.4803348863
1.58431595275
1.65631697975
1.67356221084
1.62093889518
1.49374281667
1.29864241585
1.05269314757
0.780570667158
0.510499255642
0.269577359188
0.079306244867
0.0848942810978
0.273217235003
0.516888493533
0.792728949193
1.07147029105
1.32261311791
1.5195059108
1.6437687968
1.68829921705
1.65834168024
1.57043836634
1.44944359269
1.32411974069
1.22207731451
1.16493499113
1.16453725456
1.2208841048
1.32213105784
1.4466594367
1.56685873721
1.65396657797
1.68312864164
1.63780274825
1.51274438911
1.31505612308
1.06311782307
0.78358100808
0.506945079279
0.262478347609
0.0733599205631
0.0824933858997
0.269437901319
0.516428243854
0.798607465588
1.08453739081
1.34144349819
1.54069840509
1.6625978205
1.69960506726
1.65750494667
1.5542690678
1.41683030888
1.27632542974
1.16262953113
1.09912829792
1.09863263301
1.1611425364
1.27384710519
1.41336065451
1.54980808361
1.65205263267
1.69316142343
1.65516284685
1.53227210162
1.33202586491
1.0741284277
0.78720717266
0.504036621107
0.256054948753
0.0681191035132
0.0799345699531
0.265545516062
0.515899811776
0.804462668757
1.09762604653
1.3603403036
1.56200219367
1.68158300768
1.71111195012
1.65691411493
1.53839054025
1.38455266524
1.22891162813
1.10360712627
1.0337918524
1.03324312833
1.10196095404
1.22616800776
1.38071159671
1.53345202358
1.6508781501
1.70397853714
1.67335214655
1.55267388439
1.34991454617
1.08610284095
0.79184201503
0.5021817099
0.250729966035
0.0640215717762
0.0772199303532
0.261550366316
0.515321674375
0.810321225769
1.11077111525
1.37934658118
1.58346851359
1.70078378536
1.72288748265
1.65664499202
1.5228867807
1.35270284876
1.18197871285
1.0451186669
0.969042411543
0.968493687468
1.04347249468
1.17923509248
1.34886178023
1.51794826403
1.65060902719
1.71575406967
1.69255292423
1.57414020432
1.36892082375
1.09924790967
0.797700572042
0.501603572498
0.246734816289
0.0613069321762
0.0743494670998
0.257452452081
0.514693831651
0.816183136622
1.12397259698
1.39846233093
1.60509736485
1.72020015354
1.73493166484
1.65669757794
1.50775778915
1.32128085945
1.1355266839
0.987164153029
0.904879975344
0.904384310434
0.985677158299
1.13304835935
1.31781120508
1.50329680497
1.65124526393
1.72848802101
1.71276517989
1.59667106138
1.38904469765
1.11356363387
0.804782843695
0.502302208904
0.244069499515
0.0599751847133
0.0713210830979
0.253241486273
0.513997806527
0.822021734251
1.13719563465
1.41764450581
1.62683751041
1.73977268519
1.74717687968
1.65699606568
1.4929195686
1.2901945103
1.0894551643
0.929635017677
0.84118778684
0.84079005027
0.928441807967
1.08746648145
1.28741035431
1.48933993947
1.65262096341
1.74200630427
1.73380663664
1.62007598871
1.41008751098
1.12884316668
0.812873793137
0.504054392273
0.242502598879
0.0597867225632
0.068131264937
0.248898980837
0.513200136308
0.827788581315
1.1503768163
1.43681471918
1.64859558899
1.75939304441
1.75949981662
1.65740217005
1.4782188592
1.25927556685
1.04358094491
0.872333077076
0.777752687618
0.777482773919
0.87152333598
1.04223137642
1.25738617096
1.47578963591
1.65443311936
1.75599093853
1.75534433892
1.64400705611
1.4316863589
1.14470862862
0.821580566239
0.506452293834
0.241611310965
0.0603037676671
0.0647763232516
0.244402054912
0.512258748633
0.83342241396
1.16343568656
1.45587332421
1.67025276227
1.77892320134
1.77174325431
1.65773947821
1.46346005663
1.22830923325
0.997670038422
0.815005152406
0.714302307362
0.714170919569
0.814610989027
0.997013099458
1.2273895187
1.4622775665
1.65629421248
1.770035213
1.77695238445
1.66801916979
1.45337695615
1.16067654291
0.830400494726
0.508974053814
0.240854584507
0.060966077261
0.0612539712593
0.239728299864
0.51113111302
0.83886057985
1.17628947125
1.47471742485
1.69168601233
1.79822001626
1.78374393117
1.65782460671
1.44843965559
1.19707188237
0.951478695833
0.757387372819
0.650552653373
0.65055037267
0.757380530711
0.951467292319
1.19705591746
1.44841912927
1.65779951898
1.78371428203
1.79818580572
1.69164724039
1.4746740915
1.1762415765
0.838808123689
0.511074095454
0.239666720892
0.0611878308825
0.0575649582268
0.234860850036
0.509782748889
0.844050983482
1.18886845994
1.49325969575
1.71279039893
1.81716093396
1.79536167707
1.65749977053
1.43298225613
1.16537049933
0.904796287335
0.699251493586
0.586257865999
0.586357658648
0.699550871532
0.905295250578
1.16606904787
1.43388038996
1.65859748966
1.7966589815
1.81865782369
1.71448687396
1.49515575607
1.19096410556
0.846346214399
0.512277565102
0.237555251547
0.0604589450343
0.0537144618588
0.229792769329
0.508194606332
0.848962461145
1.20112937512
1.51144474559
1.73349841692
1.83566633551
1.80650475928
1.6566611231
1.41697189787
1.13307700995
0.857482624965
0.640445212935
0.521253529662
0.521416248117
0.6409333683
0.858296217239
1.13421603914
1.41843636397
1.65845102611
1.80862009919
1.83810711234
1.73626463065
1.51453639624
1.20454646268
0.852704985608
0.512262567705
0.234186167611
0.0584332970508
0.0497129821785
0.224529979013
0.506368027872
0.853591776608
1.21306440181
1.52926018065
1.75379309382
1.85371466969
1.81714704781
1.65527795571
1.40037329335
1.10015154801
0.809493263732
0.580919507126
0.455486041871
0.455667959837
0.581465261022
0.810402853559
1.10142497377
1.40201055504
1.65727905333
1.81951198136
1.85644343917
1.75688569924
1.53271662199
1.21688467908
0.857775889813
0.510915977008
0.229441764079
0.0549886031759
0.0455765627364
0.219092201608
0.504326414996
0.857966010328
1.22470429942
1.5467404393
1.773712547
1.87134773281
1.82733401797
1.6533994226
1.3832392758
1.06665062571
0.760888394813
0.520738246304
0.389022951741
0.38918402189
0.521221456751
0.761693745558
1.06777811675
1.38468890714
1.65517119424
1.8294279299
1.87376378504
1.77645073954
1.54980077213
1.22808677255
0.861670623755
0.50835316872
0.223441095631
0.0502475970568
0.0413262785844
0.213511736049
0.50211329052
0.862139909003
1.23611503854
1.56396271602
1.7933451948
1.8886651671
1.83717653585
1.65114761379
1.36570315908
1.0327187808
0.711823779844
0.460068415987
0.32204246867
0.322153867557
0.460402612649
0.712380774282
1.03349857302
1.36670574907
1.65237300155
1.83862472139
1.89033615041
1.79523897589
1.56607929488
1.23845441518
0.864702083415
0.504898262706
0.21651950601
0.0445568463211
0.0369870547649
0.207830251984
0.4997870687
0.866188631497
1.24738852265
1.58103565889
1.81281642991
1.90580910987
1.84683348336
1.64869815576
1.34795731432
0.998565129015
0.662525279155
0.399152621112
0.254803942203
0.254853590991
0.399301567476
0.662773523096
0.998912670533
1.34840415342
1.64924429243
1.84747891761
1.90655384169
1.81366045931
1.58197898586
1.2484311472
0.867330553627
0.501028288406
0.209170769266
0.0384268696237
0.0325859926287
0.202094131444
0.497413412248
0.8701971212
1.2586289758
1.59808277264
1.83226903775
1.9229416272
1.85648620729
1.64625167599
1.33022164966
0.964428859166
0.613251362247
0.338268611859
0.187604403201
0.187599503731
0.338253913451
0.613226864899
0.96439456288
1.33017755443
1.64619778183
1.85642251419
1.92286813516
1.83218574677
1.59798968272
1.25852608694
0.870084433401
0.49729092551
0.201961845767
0.0324439080131
0.0281504644951
0.196349135433
0.495056470849
0.874247916482
1.26993732506
1.61522337303
1.85184072274
1.94021881222
1.86630918943
1.64400104496
1.31270742426
0.930539619106
0.564250065654
0.277682813447
0.120728665565
0.120694808364
0.277581241844
0.564080779647
0.930302618697
1.31240270945
1.64362861575
1.86586904582
1.93971095421
1.85126515032
1.6145800862
1.26922632384
0.873469200854
0.494210040818
0.195434990999
0.0271686056592
0.023706275639
0.190635288211
0.492770487754
0.878409479581
1.28139625165
1.63255436026
1.87164260409
1.95776600311
1.87644198695
1.64210003882
1.29558263327
0.897079622962
0.515717822489
0.217605877977
0.0544016003832
0.0543785949629
0.217536861716
0.515602795388
0.89691858502
1.29537558448
1.6418469792
1.87614291649
1.95742092181
1.87125151195
1.63211725727
1.28091313783
0.877880354913
0.492195352245
0.190014141862
0.0230391184491
