# vtk DataFile Version 2.0
Function: z = f(x,y,z)
ASCII
DATASET STRUCTURED_POINTS
DIMENSIONS 30 30 1
ORIGIN 0 0 0
SPACING 0.05 0.05 0.05
POINT_DATA 900
SCALARS density float
LOOKUP_TABLE default
0.0955447182206
0.271751693567
0.447075275209
0.618883325123
0.784383866731
0.940812562253
1.08562705737
1.21667769678
1.33232803833
1.43150707967
1.5136866949
1.57879045883
1.62705162326
1.65884650347
1.67453346734
1.67432641855
1.65822535712
1.62601637935
1.57734111735
1.51182325586
1.42922954306
1.32963640415
1.21357196503
1.08210722806
0.936878635375
0.780035842287
0.614121203113
0.441899055632
0.266161376425
0.0895403035122
0.108764108652
0.283766536318
0.461946140569
0.639220446744
0.810921832446
0.972319330614
1.11916263698
1.24815726029
1.35729150356
1.44596139705
1.51487442306
1.56575087853
1.60087644407
1.62258496761
1.63276223059
1.63245751578
1.62167082317
1.59935287002
1.56361787485
1.51213198976
1.44260953413
1.35333021102
1.24358653812
1.11398248519
0.966529749203
0.804522821412
0.632212006088
0.45432827029
0.275539236418
0.0999273791286
0.121905552579
0.29606171818
0.477455630653
0.660554478703
0.838814994113
1.00553958054
1.15476998377
1.28206687659
1.3850433072
1.46356233846
1.51956706086
1.55657449348
1.57892274575
1.59090319821
1.59592904594
1.59588495071
1.59077091254
1.57870226962
1.5562658269
1.51917020383
1.46307729097
1.38447006927
1.28140544821
1.15402036493
1.00470177126
0.837888994377
0.659540288516
0.476353250015
0.294871147091
0.120626791039
0.134736802531
0.3082770208
0.493115556229
0.682269260888
0.86731922074
1.03960121016
1.19144902499
1.31727850205
1.41432743474
1.48292591849
1.52625265202
1.54962137653
1.55942263025
1.56190532639
1.56201007358
1.56245691267
1.56324584367
1.56165682572
1.55274925019
1.53027420387
1.48784114852
1.42013634296
1.32398108846
1.19904528959
1.04809115295
0.876702841716
0.692546560052
0.504286533582
0.32034167634
0.14769513626
0.147011507632
0.320000595142
0.508348570102
0.703621947943
0.89552616881
1.0734303778
1.22796042079
1.35238729868
1.44357355001
1.50231630283
1.53302986406
1.54282469704
1.54014376879
1.53319352517
1.5284419884
1.52944457839
1.53620129513
1.54515671873
1.54984282695
1.54205317395
1.51334479269
1.45660721984
1.36742614849
1.24500445058
1.09247958756
0.916580558542
0.726681517649
0.533413319783
0.347070524798
0.176086617262
0.158485755726
0.330815002938
0.522563707888
0.723848049371
0.922497821714
1.10591554073
1.26301910236
1.38593467152
1.47114953195
1.51992784431
1.5379195237
1.5340317556
1.51875993584
1.50226804292
1.49255151266
1.494001144
1.50661693695
1.52600809255
1.54417917499
1.55096620577
1.53587378906
1.48999473939
1.40767914163
1.28766283515
1.13345853621
0.952940079872
0.75718957021
0.558804491409
0.36995504914
0.200525064609
0.16893522143
0.340345217339
0.535235241274
0.742271135395
0.947407048208
1.13607886625
1.2954965355
1.41664138494
1.49562544347
1.53417990435
1.5391902909
1.52136051071
1.49323838844
1.46694543522
1.45200450046
1.45364176215
1.47185722029
1.50142469689
1.53282134253
1.5539256461
1.55218978293
1.51690984542
1.44120031027
1.32332998421
1.16718683833
0.981789543674
0.779928154238
0.576166783496
0.384551282938
0.216415810407
0.178170229279
0.348300547941
0.545971464919
0.758398485733
0.969660113074
1.16322560419
1.32459695513
1.4436106589
1.51600348958
1.54397367305
1.53564234081
1.5035101226
1.46217727187
1.4257228324
1.4051970672
1.40666153329
1.43011623068
1.46949960234
1.51376138526
1.54882253566
1.56008280009
1.53504154881
1.46557765031
1.34949287873
1.19105045998
1.00041390105
0.792081205897
0.582583117271
0.387841132481
0.220639746007
0.186046387316
0.354503492069
0.554561765427
0.771986376273
0.988980181479
1.18704580901
1.34997730497
1.46646632641
1.53187439259
1.54886676198
1.52680017429
1.47997198139
1.42503486554
1.37802540316
1.35152127085
1.35241940469
1.38071980467
1.42952553473
1.48625891825
1.53488337882
1.55874623418
1.54355013247
1.47993833396
1.3652455802
1.20411035191
1.00784099205
0.79264345452
0.577015111348
0.378753105663
0.212092268584
0.192469195335
0.358900758275
0.56099406011
0.783063933084
1.00543758825
1.2076510243
1.37179033737
1.48540234857
1.54347332235
1.54913554976
1.51298137871
1.45110488322
1.38221117435
1.32429436116
1.29145953384
1.29143900751
1.32423278219
1.38210854273
1.45096119895
1.5127966418
1.54890976019
1.54320648014
1.48509445372
1.37144138987
1.20726102415
1.00500653545
0.782591827636
0.560480902014
0.358346547532
0.191873931944
0.197392053991
0.361554771469
0.565439798129
0.791911629581
1.01942183106
1.22553977197
1.39064359851
1.50113529583
1.55162587354
1.54571465532
1.49522959727
1.41806149553
1.33496788999
1.26590042234
1.22649159636
1.22530910622
1.26235295193
1.32905543932
1.40978406459
1.48458718605
1.53270726383
1.53625350178
1.4833979438
1.37054126621
1.2030724594
0.994589538224
0.764714356476
0.535877544754
0.329627537824
0.163099840076
0.200808219885
0.362617322555
0.568209304697
0.798998325283
1.03156030373
1.24149798016
1.40748155082
1.51476816491
1.55759357721
1.54002414401
1.47512342961
1.3825789523
1.28520068073
1.20489778927
1.15883019529
1.156400972
1.1976101194
1.27305456428
1.36557438926
1.45326042
1.51330268782
1.52601367443
1.47832981555
1.36618475488
1.19534273763
0.980546614624
0.743126189597
0.507478722431
0.297028293708
0.130360744456
0.202738274059
0.362290089237
0.569685354175
0.804887891208
1.04259797393
1.2564517132
1.4234113553
1.52758921347
1.56284578769
1.53371446683
1.45449442339
1.3466698978
1.23510328754
1.14366129958
1.09103126491
1.08745163578
1.13292241219
1.21720514188
1.32161249388
1.42227776121
1.49433854638
1.51631060898
1.4738947765
1.36255766006
1.1884387597
0.967425762174
0.722556421185
0.480194625889
0.265640102688
0.0989290292468
0.203215420801
0.36077899927
0.570246597788
0.810131702053
1.05325893984
1.27129779272
1.43950255704
1.54084071008
1.56879749699
1.52837333926
1.43510301757
1.31226749449
1.18678159631
1.08446956265
1.02554613806
1.02108515388
1.07108661008
1.16447667536
1.28104060517
1.39495415987
1.47930251318
1.51080470254
1.47392594725
1.36366582583
1.18653909313
0.959578271877
0.707529065708
0.458721993065
0.240332426169
0.0738468793228
0.202271280807
0.358250445138
0.570194199806
0.815165693873
1.0641139093
1.28674169836
1.45659540748
1.55549767795
1.57655850013
1.52524532809
1.41832855072
1.28088585272
1.14188448919
1.02910623239
0.964293240475
0.959354723799
1.01429068237
1.11719190581
1.246316236
1.37388190064
1.47092164465
1.51235778335
1.48141992782
1.37264062399
1.19290988153
0.960405059112
0.701579810334
0.446731282916
0.224910494896
0.0590542972147
0.199924727933
0.354797010612
0.569694453917
0.820229870273
1.07547659582
1.30317085356
1.47515103995
1.57209496035
1.58673735028
1.52501269642
1.40492699586
1.25335465543
1.10131535904
0.978548411585
0.908323384818
0.903384868142
0.963732861558
1.07662277566
1.2187850387
1.36048034578
1.47068901298
1.5225366335
1.49801721022
1.39119625646
1.20933903672
0.971767745634
0.706643986734
0.446231537027
0.22145706037
0.0567077443401
0.196175762178
0.350418695691
0.56874736012
0.825324231253
1.08734699941
1.32058525831
1.49516945446
1.59063255728
1.59933404745
1.52767544425
1.39489835298
1.22967390261
1.06507420584
0.932796100224
0.857636571094
0.853175586905
0.919413147657
1.04276928489
1.19844701329
1.35474949528
1.47860461817
1.54134125299
1.52371779445
1.41933272325
1.23582655872
0.993666331443
0.722721594908
0.457222755398
0.229972122591
0.0668072206991
0.191005509686
0.345022916605
0.567186624729
0.830208773208
1.09941140654
1.33859748918
1.51618951766
1.61057562546
1.61374003844
1.53255130848
1.38748664907
1.20901391133
1.03225763676
0.890872195546
0.811181986625
0.807602357493
0.880133308152
1.0143594911
1.18395650741
1.35526998689
1.49317538803
1.56720485973
1.55688118849
1.45533582243
1.27058453568
1.02423919478
0.747877303184
0.477695896443
0.248372930056
0.087196264874
0.184382349763
0.338443280872
0.564711083473
0.834447560082
1.11109910938
1.35650206653
1.53737097813
1.6309491417
1.62884552827
1.53839572232
1.38131254557
1.18986057124
1.00121676964
0.85099304362
0.767041205691
0.7646119824
0.843705373748
0.989070653186
1.1728560082
1.35944953595
1.51167426613
1.59726562549
1.59451079234
1.49607418219
1.310346824
1.06008542028
0.778575424396
0.503980501207
0.272854252024
0.113934874334
0.17627307812
0.330473860733
0.560942085127
0.83748921718
1.12168600976
1.37340216873
1.55764429077
1.65051083742
1.6432355249
1.54362097029
1.37461560349
1.17028071989
0.969845718583
0.810880035068
0.722762895444
0.721580405309
0.807332564663
0.963933267908
1.16200328894
1.36397319228
1.5306135788
1.62786315314
1.6327734854
1.53754195848
1.35093485617
1.09685371692
0.810291944075
0.531379831752
0.298546627087
0.141980864205
0.166657113714
0.320912978487
0.555496855329
0.838769873482
1.13042713999
1.38837173145
1.57590229458
1.66797245497
1.655440674
1.54657660139
1.36556427521
1.14826171298
0.93595074263
0.768158332274
0.675791121613
0.675770595289
0.768096753303
0.93584811101
1.14811802872
1.3653795383
1.54635081182
1.65517383179
1.66766456011
1.57555334708
1.3879817313
1.12999608719
0.838297768034
0.554983697233
0.320358767743
0.166061850323
0.155541199947
0.309608843228
0.548065068868
0.837820669471
1.13669510627
1.40062482656
1.59120052713
1.6822309976
1.66419944455
1.54584255027
1.35257996106
1.12206641656
0.897636173508
0.720773732662
0.623913147312
0.624811281149
0.723468134173
0.902126842692
1.12835335342
1.36066316559
1.55572202247
1.67587518443
1.69570300515
1.60646880235
1.41768936946
1.15555591684
0.858477747718
0.570518414789
0.333858456822
0.181587081215
0.14297193616
0.296499030047
0.538475276582
0.834361131731
1.1401004109
1.40966293213
1.60293144223
1.69256989489
1.66868624184
1.540484198
1.33461901786
1.09054216319
0.853640319527
0.667355520287
0.565649232345
0.567113698439
0.671748918569
0.860962649997
1.10079342585
1.34779921271
1.55659332504
1.68772430107
1.7145368863
1.62782736583
1.43748778792
1.17085419888
0.868043851894
0.575086928933
0.336039614587
0.185441452888
0.129043822563
0.281636830393
0.526739561159
0.828362134192
1.14057271908
1.41537450458
1.61094228755
1.69879518573
1.66866589603
1.53022516596
1.31136385822
1.05333015671
0.803563175785
0.607462481488
0.500516954292
0.502154215981
0.612374266555
0.811749484229
1.06479098854
1.32609921342
1.54823504454
1.68995029798
1.72335411106
1.63877573626
1.44648247667
1.17495521455
0.866019153036
0.56767110338
0.325842895992
0.17652441154
0.113901251109
0.265199746939
0.513068535995
0.820067400968
1.13838886563
1.41806948945
1.61557611936
1.70128303711
1.66454768482
1.51550784258
1.2832899813
1.01093900701
0.747946462873
0.541669447577
0.429124255183
0.430573886524
0.546018341599
0.755194619577
1.0210864264
1.29633666337
1.53145378733
1.68339289225
1.72302750722
1.64021985215
1.44561248493
1.16883112379
0.853408921807
0.549309319515
0.304339793141
0.155940559993
0.0977338972663
0.247478470091
0.49785390643
0.809969652339
1.13414258577
1.41844263691
1.61762870274
1.70093022907
1.65732940317
1.49743103776
1.25159721193
0.96466955386
0.688192035505
0.471479288205
0.353075019608
0.354077609595
0.474487058166
0.693204985441
0.971687683771
1.26062052182
1.50845952762
1.670363073
1.71596907888
1.63467273253
1.43749184667
1.15519697551
0.833029222046
0.522918656111
0.274548399747
0.126809006896
0.0807660864161
0.228848026696
0.481621400779
0.798745318084
1.12866101075
1.41747177967
1.61822857188
1.69901599724
1.6484409882
1.47757539008
1.21801689016
0.916403838766
0.626332636655
0.39907544781
0.274703393472
0.275150232566
0.400415965093
0.628566832126
0.919531712425
1.22203844201
1.48249062011
1.65424989642
1.70571858365
1.62582483648
1.42596172246
1.13804463172
0.809022617249
0.492792378132
0.240912682237
0.0937244201451
0.0632417307153
0.209725855024
0.464961983424
0.787158888699
1.12288215716
1.41626846044
1.61866079561
1.69699893658
1.63951456097
1.4577465467
1.18452818927
0.86829456113
0.564694491837
0.326957678021
0.196682654514
0.196638559288
0.326825392345
0.56447401571
0.867985894551
1.18413133225
1.45726149922
1.63894132304
1.69633750819
1.61791117678
1.41543065116
1.12195615743
0.786144698512
0.463859602787
0.208535283935
0.0619629691754
0.0454071810386
0.19052380411
0.448453001562
0.77595320954
1.11771436854
1.41590652091
1.62016471377
1.69628388507
1.63212045763
1.43968034196
1.15303244175
0.822408551592
0.505509929851
0.257523805798
0.121576127856
0.121271413045
0.256609661365
0.503986355796
0.820275547914
1.15029000845
1.43632847904
1.62815916509
1.69171316291
1.61498456198
1.41011693949
1.11131535751
0.768944768884
0.440835131283
0.182296504209
0.0365704515156
0.0274946848585
0.171602092306
0.432582644423
0.765744440718
1.11390177587
1.41725806294
1.62374039911
1.69799888636
1.6275146927
1.42476076124
1.12504160386
0.780385737301
0.450546848727
0.19266970005
0.0514076532869
0.0512006045039
0.192048553701
0.449511604811
0.77893639582
1.12317816482
1.42248322462
1.62482305852
1.69489315462
1.62022056979
1.41332413606
1.10955375143
0.760982318708
0.427406424847
0.166011775164
0.02149027015
