# vtk DataFile Version 2.0
Function: z = f(x,y,z)
ASCII
DATASET STRUCTURED_POINTS
DIMENSIONS 30 30 1
ORIGIN 0 0 0
SPACING 0.05 0.05 0.05
POINT_DATA 900
SCALARS density float
LOOKUP_TABLE default
0.0886586124029
0.237008756288
0.384614078029
0.529255324001
0.668578474734
0.800252814062
0.92213478834
1.0324119431
1.12970453301
1.21310955606
1.28218172965
1.33685661685
1.37733088094
1.40392180736
1.41693154941
1.41654045726
1.40274853093
1.37537542022
1.33411897183
1.27866190034
1.20880754246
1.12462033511
1.02654556092
0.915486221862
0.792822063292
0.660365539673
0.520260204649
0.374836774385
0.226449268352
0.0773169401759
0.116082483609
0.263314894061
0.413226100457
0.562374016318
0.706823195311
0.842584782852
0.96607518907
1.07451670565
1.16621319593
1.24065543051
1.29843991408
1.34101709307
1.37031410996
1.38829871889
1.39656089245
1.39598532003
1.38657200163
1.36743624786
1.33698808612
1.29325976229
1.23432413388
1.15873075446
1.06588311934
0.956290457912
0.831648906853
0.694736174469
0.549135850634
0.398836789931
0.247774438693
0.0993908833986
0.14335912253
0.290150561265
0.443044414029
0.597375761496
0.747627730462
0.888153327933
1.0139289278
1.12121156792
1.20798872029
1.27414492811
1.32131848336
1.35247471586
1.37127124727
1.38132630042
1.38551766722
1.38543437624
1.38107642748
1.37085479237
1.35189167899
1.32056886453
1.27322872731
1.20690593753
1.1199622032
1.01251298112
0.886570799284
0.74587861985
0.595460068921
0.440962139491
0.287901704764
0.140943684066
0.170049839497
0.316835345456
0.473146883531
0.633096701544
0.789586499427
0.935311145769
1.06380697824
1.17036578083
1.25265863424
1.31096385423
1.34796152011
1.36813184506
1.37686292993
1.37942346625
1.37997906522
1.38082309462
1.38195555445
1.38108307693
1.37404005086
1.35555778471
1.32024817763
1.26363101643
1.18302622183
1.07815547804
0.951347704368
0.807311116826
0.652509377744
0.494247618531
0.339624139256
0.194526692097
0.19568930508
0.342591309569
0.50244296426
0.668133684125
0.830983742229
0.982029868748
1.11336836512
1.21932576149
1.29725674724
1.34783341072
1.37477761854
1.38408446724
1.38287253688
1.37806098766
1.37510325012
1.37699703121
1.38374233092
1.39234144231
1.39734093485
1.39182164832
1.36866500267
1.32187590137
1.2477324778
1.1455626436
1.0180117094
0.870753145056
0.711690649127
0.549787491436
0.393723398918
0.250608956603
0.219816796315
0.366629959092
0.529816390159
0.701042671635
0.870047649718
1.02620991617
1.1601857362
1.26533638612
1.33870016396
1.38134293068
1.3980283402
1.39626637242
1.38490608657
1.37251711159
1.36584069729
1.36857888982
1.38073168919
1.39859704924
1.41543372015
1.42267207299
1.41146304854
1.37429666689
1.30640927411
1.20673500926
1.07823557429
0.927549692904
0.764021099886
0.598271203475
0.440561157474
0.299224379762
0.242008587482
0.388242909982
0.554274118857
0.730545963378
0.905215862876
1.0660042707
1.20212741582
1.30598132071
1.37428789209
1.40850676349
1.41444337613
1.4011225933
1.37912395341
1.35866755409
1.34778246446
1.35087506987
1.36794537033
1.39458698047
1.42277083118
1.44227682484
1.44252542302
1.41449176245
1.3523704019
1.25470170783
1.12476377353
0.970160576534
0.801675887861
0.631589254164
0.471743256113
0.331694144439
0.261906402699
0.406881080362
0.575076262488
0.755712865495
0.935366881848
1.10010062648
1.23769029214
1.33956664744
1.4021352078
1.42724937932
1.42175639053
1.39619598808
1.3628781896
1.33367356138
1.31789899186
1.3206652056
1.34197220258
1.37670925826
1.41555948422
1.44665231413
1.45767773038
1.43809598633
1.38105985344
1.28471592561
1.15265868741
0.993457370246
0.819335781359
0.644231605819
0.48156885116
0.342126600963
0.279237501606
0.422209187403
0.59182499575
0.776083010215
0.959977796394
1.12791353081
1.26622636998
1.36538182866
1.42146903096
1.43673515557
1.41906921833
1.38052584924
1.33514554512
1.29644934098
1.27504194455
1.27673841958
1.30153876606
1.34362792025
1.39240117442
1.43433749355
1.45539638085
1.44352320629
1.39082895404
1.2950664454
1.16014655629
0.995603771921
0.815101935792
0.634236871378
0.468014013081
0.328435277334
0.29382338381
0.43412656948
0.604497495786
0.791711413446
0.979181461189
1.14965367713
1.28802418154
1.38379323535
1.43273357133
1.43748614077
1.4069817468
1.35478990281
1.2966815848
1.24782829648
1.22012256487
1.22008379292
1.24771198064
1.29648772507
1.3545184992
1.40663279929
1.43705964937
1.43222953604
1.38321165617
1.28736505847
1.14891701017
0.978367250344
0.79081965871
0.603528197161
0.433079726965
0.292698997405
0.30557602833
0.442751140311
0.613417611014
0.803127858306
0.993713594052
1.16626271795
1.30423131404
1.39615438941
1.43748828551
1.43126772622
1.38746530197
1.32116540952
1.24986950405
1.19039955798
1.15593591763
1.15370232515
1.18369878054
1.23870154166
1.30553026217
1.36736296967
1.40669820897
1.40845158331
1.36265050225
1.26626024193
1.12382446088
0.94680815203
0.75175523133
0.557577799083
0.382444143426
0.240801846491
0.314482697633
0.448369616051
0.619171511278
0.811217968331
1.00475927221
1.17922518418
1.31663175209
1.40454872915
1.4381160655
1.4207622576
1.36350168319
1.2829336224
1.1982900096
1.12804328591
1.08666161695
1.08207308407
1.11427768726
1.17534734519
1.25081389222
1.32220488725
1.37028839589
1.37846513803
1.33572073591
1.23862669309
1.09204305942
0.908400081677
0.705681712037
0.50445818922
0.324479228228
0.181415244045
0.32058226702
0.45136294347
0.622482214816
0.817046833224
1.01372565682
1.19029030848
1.32731679979
1.41140963013
1.43739235832
1.40908725341
1.33855048044
1.24389620291
1.14608683438
1.06524528466
1.01712753869
1.010366017
1.04496071958
1.11227922592
1.19656555106
1.27769678521
1.33471051479
1.34949257632
1.30998680474
1.21237093101
1.06182139632
0.871733701275
0.661531834291
0.453444172498
0.268801857766
0.12449813793
0.323937455703
0.452120097221
0.624064951721
0.821655938519
1.02198048888
1.20115208725
1.33830670899
1.41908359966
1.43798992673
1.39924173184
1.31593696734
1.20770468011
1.09723776288
1.00630959417
0.951963978212
0.943537674744
0.981030683764
1.05510624554
1.14872055583
1.24010023613
1.30655239369
1.32844798165
1.29268904764
1.19505955004
1.04105232136
0.84502811605
0.627850958756
0.413407365023
0.224609903586
0.0795746551324
0.324607991661
0.450955374214
0.624488587835
0.82586871899
1.03060177207
1.21314309313
1.35118862128
1.42941234823
1.44200505015
1.39357654124
1.29826656119
1.17721904021
1.05485735025
0.954605338519
0.894794628549
0.885466319273
0.926620410691
1.00821580387
1.11192087528
1.2143117777
1.29096513921
1.32073702956
1.28948770909
1.19260736359
1.03590521688
0.834707277275
0.611317605638
0.391280855932
0.199091023758
0.0540870226532
0.322629525512
0.448043654908
0.624067233458
0.830138514778
1.0401820764
1.22699512594
1.36683356631
1.44340613535
1.45058721792
1.39338040082
1.28696721101
1.1540064621
1.02065200522
0.91197815627
0.847604358093
0.838276048817
0.883993228441
0.974010458838
1.08870829717
1.20301242753
1.29076899878
1.32931919733
1.30348149621
1.20825230861
1.04975724969
0.844287581598
0.615587401427
0.390859501555
0.196179304452
0.052108556504
0.318002057255
0.443384939302
0.62280088859
0.834465325883
1.05072140184
1.24270818569
1.38524154407
1.46106496102
1.46373643005
1.39865331055
1.28203891681
1.13806694577
0.994621727776
0.878428047419
0.810393166844
0.801966863376
0.853149137015
0.952490210436
1.0790828215
1.20620218559
1.30596397241
1.35419448497
1.33467040901
1.24199438512
1.0826084198
0.873769029017
0.64066034612
0.412143301891
0.215874745667
0.073639256685
0.310689936274
0.436804346938
0.620375442931
0.838395812164
1.06162717844
1.25955047254
1.40554152492
1.48137856574
1.48030319719
1.40810655127
1.28205372955
1.12783331236
0.975060109212
0.852109373415
0.781176186409
0.774414664716
0.831824808337
0.941252500748
1.08050266051
1.22120003431
1.33372981265
1.39240341519
1.37995574035
1.29059565614
1.13108156038
0.919635222888
0.682880813231
0.451337400612
0.254243261234
0.114605807185
0.300633434589
0.427987580906
0.616222030639
0.841106538848
1.07182140246
1.27618941387
1.42614636727
1.502505239
1.49819123992
1.4193892746
1.28440623194
1.12044557563
0.958852594367
0.829653010164
0.756329723763
0.75174119088
0.815887411517
0.935909929955
1.08832584545
1.24310943599
1.3689154129
1.43854031245
1.43367724576
1.34814130827
1.18900728911
0.975462211934
0.735570282554
0.50150870858
0.304097193083
0.167565981001
0.287769832988
0.416545666553
0.60962542162
0.841556020399
1.07993633295
1.29093101326
1.44503581928
1.5220984735
1.51472779548
1.42950246237
1.28577115036
1.11225220652
0.942021398743
0.80675491773
0.731223483527
0.72898989105
0.800054140298
0.930853436357
1.09661705918
1.26566881806
1.40493294512
1.48569109328
1.48859458634
1.40706474717
1.24849275619
1.03303089093
0.790183393423
0.553785609689
0.356238669668
0.222995651148
0.27206025617
0.402097657109
0.599862597638
0.838679167115
1.08456480874
1.30202603806
1.46011857683
1.53772489368
1.52713741684
1.43532859606
1.28268889483
1.09945154359
0.920422789426
0.778929291729
0.701029589853
0.700990817908
0.778812975894
0.920228929701
1.09918013998
1.28233994733
1.43490210467
1.52663338156
1.5371433145
1.45945945377
1.30128937111
1.08375059789
0.83778741238
0.598893299013
0.401050814594
0.270935869764
0.253517441667
0.38435683642
0.586347388848
0.83159035546
1.08452175259
1.30798995737
1.46961065532
1.54730106124
1.53303721202
1.43418533001
1.272177666
1.0787623338
0.890476059681
0.742295971738
0.661568428625
0.66326490365
0.747385396813
0.898958434806
1.09063765898
1.28744594123
1.45284655529
1.55509138735
1.57274818662
1.49845073075
1.34022298285
1.12014772811
0.870609281037
0.628759264475
0.430161662098
0.302715217395
0.232229410462
0.363205290766
0.568755946831
0.819759802317
1.07907144669
1.30788111867
1.47236446754
1.54947345426
1.53086772441
1.4243072729
1.25226613785
1.04800731642
0.849798014089
0.694265827638
0.610044935027
0.612811148761
0.702564468838
0.863629082755
1.06737081256
1.27716206145
1.45473562397
1.56682850294
1.59096666026
1.51939010101
1.3604391796
1.13716193508
0.883382718181
0.637911290162
0.437893061563
0.312449608726
0.208374662947
0.338743681772
0.547111094446
0.803132491776
1.06808103636
1.30148882851
1.46809148128
1.54387570177
1.52018474425
1.40517237622
1.22235442309
1.00650876542
0.797633087837
0.63400545585
0.545547866712
0.548640472125
0.643283272087
0.813096114899
1.0281570033
1.2501878718
1.43919103575
1.56038861461
1.59026478295
1.52066577329
1.36024833134
1.13302575002
0.874262416259
0.624426229753
0.422244027904
0.298060219903
0.182225939482
0.31130729227
0.521810656993
0.782168791609
1.05207343185
1.28939853961
1.45743969171
1.53121834142
1.50176135167
1.37761626256
1.1833406868
0.955227388314
0.735004530932
0.562600648849
0.469225558626
0.471963751158
0.570815226447
0.748695493595
0.974394736042
1.20798441959
1.40773638042
1.53735785459
1.57229122941
1.50398896477
1.34142419773
1.10957547503
0.84514721986
0.59026547031
0.385238490652
0.261633522929
0.154141515948
0.281445204134
0.493594522341
0.757799395676
1.032170133
1.27292255781
1.44191221068
1.51319529103
1.47748227049
1.34371446173
1.13749126478
0.896620326916
0.664560291166
0.482890160422
0.384107570546
0.386001351633
0.488571503683
0.674029196601
0.909876794526
1.15453529456
1.36454605369
1.50210142462
1.54160200734
1.47410648916
1.30890439846
1.07193953583
0.801356360677
0.540939049516
0.332577293483
0.209061167472
0.124545118067
0.249865801408
0.463455732858
0.731302004671
1.00993349884
1.25390790045
1.42364071385
1.49222288461
1.45004849304
1.30645262439
1.088076466
0.834242548517
0.590139994156
0.398998274509
0.29460284474
0.29544687414
0.401530362709
0.594360141156
0.840150754316
1.0956727306
1.31573694779
1.46102087524
1.50488332561
1.43798921365
1.26994445905
1.02765811624
0.75071468087
0.484556467857
0.272654595208
0.149021970667
0.0938974688019
0.217357578604
0.432510554601
0.704120656198
0.987135338525
1.23445414824
1.40505255348
1.47105624595
1.42254291464
1.26924141741
1.03883472889
0.772160263093
0.516137621428
0.315646744184
0.205760905827
0.205677614846
0.315396871239
0.51572116652
0.771577226222
1.03808511006
1.26832521662
1.42146013188
1.46980688123
1.40363660679
1.23287161959
0.985386227913
0.702204963623
0.430428280063
0.215108722103
0.0914820303377
0.062663897582
0.184698472787
0.401849532274
0.677658502597
0.965491412018
1.21658966878
1.38848870479
1.45234895792
1.39793172583
1.23535963896
0.993357459244
0.714277484077
0.446769794049
0.23736479815
0.122423590147
0.121848017726
0.235638080887
0.443891931944
0.71024847713
0.988177307455
1.22902834233
1.39044928436
1.44371537161
1.37870397364
1.20565379278
0.953404391177
0.664420336913
0.387460221748
0.169158017419
0.0459722973719
0.031283094078
0.152568896401
0.372394801093
0.653079401856
0.946407300087
1.20196176562
1.37583819412
1.43823176962
1.37858739845
1.20742148366
0.954500574463
0.663691851639
0.385375874964
0.167733522124
0.0484137061907
0.0480226140449
0.166560245687
0.383420414235
0.660954206619
0.950980745151
1.20311947005
1.37350320056
1.43236538743
1.36918962764
1.19453101485
0.938194365026
0.644084282504
0.362617497449
0.142009408466
0.0199414218509
