# vtk DataFile Version 2.0
Function: z = f(x,y,z)
ASCII
DATASET STRUCTURED_POINTS
DIMENSIONS 30 30 1
ORIGIN 0 0 0
SPACING 0.05 0.05 0.05
POINT_DATA 900
SCALARS density float
LOOKUP_TABLE default
0.0800509801308
0.193580084689
0.306537581556
0.417220322599
0.523821734738
0.624553128822
0.717769452054
0.802079751007
0.876425151346
0.940112651545
0.992800523089
1.03443931438
1.06517995305
1.08526593722
1.094929152
1.09430800565
1.08340249818
1.0620742213
1.03009128993
0.987210205946
0.933280041704
0.868350248807
0.79276255577
0.707209964118
0.612751348188
0.510777661406
0.402933956568
0.291008922827
0.176809133262
0.0620377360055
0.125230452305
0.23775034124
0.352326050317
0.466315978286
0.576699898891
0.68041659815
0.774715879183
0.857466012357
0.927365311392
0.984022972328
1.02789677784
1.06009986123
1.08211119232
1.09544090799
1.10130921978
1.10039507535
1.09269847469
1.07754047016
1.0537008502
1.01966947794
0.973967383561
0.915481433757
0.843753845856
0.759175423815
0.663047853915
0.557502865789
0.445290656318
0.329472439481
0.213068441537
0.098720263736
0.170176084969
0.282761615121
0.40003039325
0.518402364987
0.633643650898
0.741420512173
0.837877607849
0.920142432085
0.986670486657
1.03737316517
1.07350776149
1.09734999383
1.11170687418
1.11935517819
1.12250344383
1.12237115815
1.11895832116
1.1110454458
1.0964239941
1.0723171904
1.03591802273
0.984950772862
0.918158146937
0.835628751348
0.738907084319
0.630865651691
0.515359794426
0.396723251336
0.279189901855
0.16633980035
0.214191135706
0.327533251277
0.448186042659
0.571631002365
0.692420597785
0.804948565279
0.904254419799
0.986724879299
1.05057263361
1.09601127391
1.12509760524
1.14126993073
1.14866330454
1.15132114108
1.15244030478
1.15378082206
1.15534269293
1.15536589095
1.1506535517
1.13716226078
1.11075696401
1.06799935828
1.00683263853
0.927043213599
0.830418393643
0.720571460714
0.602462899859
0.481698974717
0.3637272179
0.253066136893
0.25653655189
0.370829702602
0.495060956958
0.623773354354
0.750305709003
0.867779232436
0.970128295521
1.05299884001
1.11436074378
1.15472979557
1.17696231163
1.18565918
1.18628349698
1.18414531579
1.18342982726
1.18643759722
1.19316862567
1.20132234679
1.20671356973
1.20403224129
1.18781526515
1.15346175328
1.09811538943
1.02126038487
0.924926861709
0.813468878199
0.692952063474
0.570255206001
0.452039491568
0.34376188078
0.296480597052
0.411398654285
0.538882242997
0.672535949464
0.804484934723
0.926577885477
1.03164402851
1.11458852936
1.17313845397
1.20811178865
1.22316436082
1.22405964344
1.21758877499
1.21032844743
1.20745217806
1.21180107209
1.2233751295
1.2393332451
1.2545019016
1.26230440702
1.2559496229
1.22967407626
1.17982193969
1.10557522689
1.0092068719
0.895811709195
0.772560511981
0.647604593558
0.528818792892
0.422598523704
0.333350295048
0.448115025786
0.578072715836
0.715889498358
0.852476881211
0.978411026268
1.08541601623
1.16765624043
1.22261595286
1.25141533741
1.25850973268
1.25082519653
1.23648090962
1.22332020269
1.21750491946
1.22241670453
1.23805555789
1.26103983496
1.285207692
1.30271579828
1.30544497314
1.28646915873
1.24133301643
1.16891636236
1.07173494253
0.955624367609
0.828860554889
0.7008673425
0.580733222583
0.475792061978
0.366576619475
0.480106745889
0.611457259449
0.752355840197
0.892500342816
1.02119440435
1.12905696341
1.20951163313
1.25979985556
1.28134401214
1.27939895268
1.26205331994
1.23875433675
1.21861197261
1.2087763977
1.21316979598
1.23179216745
1.26072132816
1.29280710792
1.31893953722
1.32967139325
1.31691403323
1.27541260736
1.20374473421
1.10466897171
0.984761706742
0.853404000688
0.721292216504
0.598728499508
0.493985169658
0.395726394468
0.506841306571
0.638404033654
0.781203802641
0.923724815038
1.05399818306
1.16153770123
1.23902620649
1.28346232893
1.29657064756
1.28440552337
1.25621818406
1.22278389459
1.19447926326
1.17944278667
1.18213718819
1.20256246779
1.23625590215
1.27507899463
1.30865513697
1.32620906417
1.31848954856
1.27944222914
1.20734252691
1.10519181176
0.980307246757
0.843175037382
0.705764071416
0.579590147354
0.473864038272
0.420516119405
0.528158833486
0.658876790382
0.802520763898
0.946361302362
1.07715699316
1.18331648674
1.25678184381
1.29430888255
1.29792437953
1.27448220691
1.2343961773
1.18976959786
1.15224571562
1.13095135365
1.13088977468
1.15206097871
1.189461703
1.2339651245
1.27392799617
1.29724701084
1.29350835592
1.25585815924
1.18226964422
1.0759869927
0.94506814396
0.801104447553
0.657337316095
0.526496201256
0.418730329231
0.440805996255
0.544246601364
0.673389877121
0.817148144213
0.961578297793
1.09216640042
1.19621595845
1.2649282564
1.29481630048
1.28820906484
1.25275993284
1.20004530199
1.14349652162
1.09602347753
1.06774131922
1.06419384882
1.08538106631
1.12575916959
1.17521300916
1.2208326992
1.24918689039
1.24869918521
1.21171620032
1.13590896156
1.02476446272
0.887081419288
0.735556324898
0.584703116995
0.448464900428
0.337929354509
0.456575794818
0.555559982921
0.682874269505
0.826492522141
0.971257982804
1.10138418922
1.20306950367
1.26677443446
1.28876917585
1.27168489957
1.22397450016
1.15837696003
1.08965167069
1.03197515671
0.996450894034
0.989163224162
1.01011214709
1.05321332133
1.10736327093
1.15838547131
1.19152053098
1.19402946752
1.15745938638
1.07917911585
0.962918461653
0.818216915493
0.658876115086
0.500682522706
0.358792896378
0.245233368531
0.467887258221
0.562704011262
0.688478290618
0.832245510743
0.977635260433
1.10758855259
1.2071986054
1.26618515097
1.28057557162
1.25330323664
1.19362055175
1.1154290843
1.03481626794
0.967225266011
0.924747880912
0.914008993517
0.935008603828
0.981121830965
1.04025687254
1.09697056521
1.1351754753
1.1409700355
1.10510184005
1.0246375197
0.903549692094
0.752118625152
0.585251100673
0.42000610576
0.272754051615
0.156459523785
0.47483999933
0.566296469659
0.691337894138
0.8360612341
0.982882425168
1.11346995541
1.21181189894
1.26688721164
1.2744804639
1.23782722256
1.16697940456
1.07700116212
0.985307971088
0.908609633569
0.859986278395
0.846603325828
0.868460775869
0.918393208255
0.983320494155
1.04653283146
1.09061474433
1.10050208053
1.06614292313
0.984301705301
0.859193856641
0.701840421266
0.528253325065
0.35676407997
0.204956750357
0.0867343748944
0.477528880229
0.566836535559
0.692356572872
0.839247500385
0.988711600542
1.12114483658
1.21943013854
1.27180568608
1.27381323766
1.22899055769
1.14818907428
1.04763552457
0.946073426579
0.861479221178
0.807921363641
0.793105813614
0.817032571097
0.871995676444
0.943926674384
1.01484912403
1.0660195074
1.08121108731
1.04957243568
0.967565788079
0.839649386073
0.677585049979
0.498489849768
0.321967822202
0.166816684835
0.0478779294513
0.476010522487
0.564601960278
0.692033207885
0.842524320409
0.996063927115
1.13177546642
1.23143672425
1.2825451041
1.28039955247
1.22884003132
1.13951747995
1.02982122044
0.919822812948
0.828765337126
0.771705574687
0.75689002466
0.784318687045
0.845745062814
0.926112370252
1.00617752971
1.06586898102
1.08779740212
1.0603118537
0.979572373798
0.850280015906
0.684937376552
0.501766669792
0.321644457215
0.164582109553
0.0463595717089
0.470284926103
0.559592743814
0.690367799177
0.845891694171
1.00493940489
1.14536184491
1.24783165609
1.2991054657
1.29423940831
1.23737564344
1.14096462159
1.02355824973
0.906556130197
0.810467981413
0.751338911532
0.737955958965
0.770319123713
0.839641367363
0.929877581761
1.02051804849
1.09016316521
1.12026102494
1.0983611772
1.02032146246
0.891085746139
0.723897400985
0.538083785136
0.355793985008
0.198253024512
0.0821793016673
0.460295469509
0.551531134853
0.686861465683
0.84862961086
1.0143968933
1.16074170175
1.26723153399
1.31988224108
1.31350714564
1.25255060477
1.15026258014
1.02635756364
0.903563199783
0.803655845751
0.743668936139
0.732930048745
0.771439183568
0.849868762812
0.951185351881
1.05361259359
1.13442284343
1.17390160951
1.15879893017
1.08467044829
0.956702841258
0.788880258017
0.60163520079
0.418389280824
0.261581175206
0.148867735073
0.445947290621
0.539917955949
0.680610714595
0.849430262305
1.02272426882
1.17579859805
1.2871156037
1.34195036062
1.33487337948
1.27063121495
1.16327333989
1.03367683111
0.905897375276
0.802977968344
0.742940371353
0.735652701481
0.781114958728
0.869459025916
0.982663142007
1.09768431105
1.19046684636
1.24013367114
1.23263531254
1.16322521588
1.03733287048
0.869683201504
0.68181385525
0.498418967796
0.343150869406
0.234604864334
0.427140776573
0.524135423829
0.670479592237
0.846639524424
1.02774923695
1.18784206891
1.30427522991
1.3615830186
1.35409313371
1.28685432747
1.17471558393
1.03971656481
0.907240998943
0.801598521057
0.74179921863
0.738251748225
0.790956109842
0.889503646918
1.01488427198
1.14278835029
1.24783215301
1.30797601845
1.30837096253
1.24396823303
1.12044013122
0.953252358446
0.765047705109
0.581792832111
0.428353722893
0.324264134828
0.403814184239
0.503578505388
0.655319775524
0.838565784155
1.02723689467
1.19409392132
1.31538892964
1.37491544207
1.36675834539
1.2962685894
1.17909466935
1.03843883186
0.901012847923
0.792392991048
0.732577675153
0.732516096181
0.792208254134
0.900704953065
1.03800777905
1.17854045861
1.29559122072
1.36595781876
1.3739917575
1.31434208713
1.19292392086
1.02594373626
0.837149467811
0.653780301237
0.501915873158
0.402028394065
0.375987743817
0.477791827909
0.634200288822
0.823802462946
1.01930506049
1.19219637088
1.31762331557
1.37863864079
1.36908442137
1.29461380469
1.17167479717
1.02463223035
0.881525917397
0.769198770583
0.708637530267
0.711331931777
0.777281975114
0.894997924949
1.04349304092
1.19592441076
1.3242522213
1.40411164101
1.41905466344
1.36342814125
1.24338999958
1.07588749221
0.885773697687
0.701560326584
0.550540668692
0.454125387621
0.343801253339
0.446588116664
0.606606784643
0.801508140549
1.00278524141
1.18065385184
1.30915574918
1.37060290348
1.35859457761
1.27908611652
1.14932503783
0.994838757968
0.844995132291
0.727903711828
0.665539563381
0.669932961663
0.741083906674
0.866962123702
1.02559254594
1.18886562237
1.32741349763
1.41570875528
1.43650387771
1.38384351998
1.2641284192
1.09504660534
0.902556301039
0.716441741698
0.565209870283
0.471209803523
0.307538213427
0.410127245997
0.572575511055
0.771595438756
0.977466432953
1.15913173342
1.28952797344
1.35022634682
1.33458330452
1.24885638904
1.11109262918
0.947982026295
0.790220477903
0.667184173803
0.601836507238
0.606748292305
0.681919529003
0.814779403236
0.982364521761
1.15529869478
1.30288602477
1.39843651039
1.42390312282
1.37302831957
1.25245564969
1.08061391935
0.884566495287
0.695370137719
0.542745442794
0.449979980358
0.267631799947
0.368941723933
0.532738308242
0.734795529909
0.944179139612
1.1285598523
1.25976915716
1.3186374718
1.29827843523
1.20525178753
1.05840406868
0.885587864941
0.718827116006
0.58876465044
0.519352187928
0.523701081951
0.601811332507
0.740571586118
0.916030123098
1.09754411488
1.25308962178
1.35481405752
1.38387088213
1.33370035554
1.21118883872
1.03550591408
0.834820092426
0.641460658804
0.48636186254
0.393749726599
0.224651039301
0.323903621687
0.488270292229
0.692586574846
0.904704567038
1.09102245892
1.22226659561
1.27852661849
1.25267335465
1.1515687417
0.994858830842
0.811558793237
0.635020610742
0.497153750694
0.422898259219
0.425906029181
0.506177060579
0.650059460551
0.832613182969
1.0219287605
1.18465421128
1.29177436415
1.32364316792
1.27339868495
1.1481700882
0.967867736234
0.761765283966
0.563464541272
0.405113410653
0.311876368191
0.179268907631
0.276138019799
0.440748647956
0.646997862904
0.861524108966
1.04945305143
1.18040589132
1.23373149383
1.20205787409
1.09254916729
0.925650935798
0.731540935705
0.544899191031
0.398901807882
0.319477158826
0.320817676108
0.402923359729
0.551601777443
0.740924556681
0.937715591338
1.10729485739
1.21948459876
1.25383925307
1.20319468512
1.07492287979
0.889674971895
0.677829760397
0.474261580014
0.312331986421
0.218143908818
0.13221714141
0.226897233079
0.391946268573
0.600322865572
0.817451815225
1.00718625799
1.13804225081
1.18862788266
1.15132835674
1.0336100058
0.856717903407
0.651992390547
0.455441533416
0.301508076887
0.217108719969
0.216976434292
0.301111219857
0.454780105033
0.651066390812
0.855527332318
1.03215486336
1.14960864295
1.18664359752
1.13579339431
1.00467283014
0.814673816018
0.597280295012
0.388639126659
0.223325519813
0.128380856791
0.0842347932613
0.177416808634
0.343595195665
0.554790118919
0.775212716364
0.967443603633
1.09889369358
1.14743029898
1.10519581108
0.97995876021
0.793763731109
0.579113649684
0.373344624296
0.212166038589
0.123482918012
0.122568773578
0.209423605289
0.368773902129
0.57271463865
0.785536431208
0.969903171443
1.09331193345
1.13371813248
1.08335323821
0.950074859398
0.756015683263
0.53376479695
0.32074158483
0.152734908932
0.0577246046923
0.0360186056023
0.12877740152
0.29715999693
0.512248103278
0.737039205358
0.93284139397
1.06596043788
1.11352287368
1.06742828064
0.935747386677
0.741324287711
0.517824494563
0.30391215776
0.136563299716
0.0446712723203
0.0440501259712
0.134699860668
0.300806426015
0.513476470119
0.735733970569
0.928914776837
1.0593533781
1.10420567844
1.05540094995
0.921039613336
0.723995132026
0.497961737248
0.281631338201
0.112006450093
0.0180053614771
