# vtk DataFile Version 2.0
Function: z = f(x,y,z)
ASCII
DATASET STRUCTURED_POINTS
DIMENSIONS 30 30 1
ORIGIN 0 0 0
SPACING 0.05 0.05 0.05
POINT_DATA 900
SCALARS density float
LOOKUP_TABLE default
0.100709297584
0.297808896527
0.493921173093
0.686104325964
0.871237910729
1.0462323734
1.20824625914
1.35487701204
1.48429566733
1.59530522238
1.68731541884
1.76024084031
1.81434218
1.85004002556
1.86773490578
1.86766588952
1.84983297677
1.81399709869
1.75975772649
1.68669427249
1.59454604351
1.48339845594
1.35384176812
1.2070729827
1.04492106444
0.869788569247
0.684516951961
0.492195766567
0.295945457479
0.0987078260144
0.103275327434
0.299105268011
0.498486170653
0.696855269563
0.888995810298
1.06962024144
1.23397822291
1.37838767627
1.50060023429
1.59994087196
1.67720030481
1.73430121763
1.77379819466
1.79829965414
1.8099132342
1.80981166259
1.79799493933
1.77329033664
1.73359021641
1.67628616037
1.59882358432
1.49927980344
1.37686410221
1.23225150565
1.06769038097
0.88686280662
0.694519122678
0.49594688056
0.296362834711
0.100329750926
0.105815375116
0.300495085866
0.503264043121
0.707938516608
0.907205441851
1.09357927
1.26040077574
1.40270835809
1.51783424738
1.60562539622
1.66825349398
1.7096493267
1.7346613696
1.74808587156
1.75373757997
1.75372288156
1.74804177633
1.73458787756
1.70954643784
1.66812120831
1.60546371372
1.51764316807
1.40248788196
1.2601509028
1.09330000023
0.906896775273
0.707600453212
0.502896582908
0.300098228836
0.105389121269
0.108252024806
0.301858277307
0.508092060753
0.719148680395
0.925618761725
1.11781875845
1.28718056005
1.42746304297
1.53557903511
1.61189746668
1.65997100095
1.68573852513
1.69634240549
1.69876672149
1.69853332985
1.69868227621
1.69921356058
1.69708713731
1.68678114968
1.66131151823
1.61353587669
1.53751533785
1.42969723844
1.28971264825
1.12064873938
0.928746635383
0.722574446783
0.51181571987
0.305879829154
0.112571469382
0.110503159546
0.303057559322
0.512777774484
0.730238145805
0.943932988746
1.14198075959
1.31390446255
1.45218345157
1.55331115208
1.61817847192
1.6517190482
1.66187986938
1.65809719272
1.64954292829
1.64344604212
1.64378023878
1.65054551828
1.65976817604
1.66421924602
1.65472681817
1.6218546352
1.5576557087
1.45719640151
1.31958580581
1.14833049617
0.950951118656
0.737924669041
0.521132691044
0.312080869207
0.120194862756
0.112487475283
0.303953785822
0.517124196186
0.740952082674
0.961835450711
1.16569475915
1.34014412697
1.47638338558
1.57048655795
1.62386652953
1.64283791133
1.63735579299
1.6191503228
1.59958124142
1.5875846242
1.58806783464
1.60103087276
1.62156637503
1.64073826611
1.64718680535
1.62918184445
1.57676829376
1.48363154228
1.34835870457
1.17487575764
0.971982870097
0.752065922953
0.529204457359
0.317000467889
0.126500578245
0.114130196891
0.304421947856
0.520956083087
0.751065014407
0.979050437207
1.1886348129
1.36552337526
1.49963643311
1.586628607
1.62843476
1.63275047697
1.61153894877
1.57882421472
1.54815384606
1.53017102746
1.53071678135
1.54979110775
1.5815529842
1.61535922605
1.63766226204
1.63443805286
1.59372340766
1.50782274155
1.37480119149
1.19900413693
0.990511269029
0.763617354021
0.534599930495
0.319157303056
0.129957059883
0.115368099214
0.304365148625
0.524142866742
0.760412700912
0.995380036493
1.21056933747
1.38977695237
1.52164366749
1.60140470093
1.63151689336
1.62105680352
1.58399572349
1.53665158358
1.49475978567
1.4706706237
1.47115877906
1.49622425176
1.5390923604
1.58741281104
1.6254502018
1.63688660237
1.60775072067
1.52896599796
1.39807559357
1.2198442894
1.00563129915
0.7716402743
0.536346750859
0.317545343471
0.12952460479
0.116153051599
0.303724220568
0.526614342685
0.768913900817
1.01073197029
1.23139501766
1.41279050621
1.54227969971
1.61467841381
1.63296546679
1.60759839126
1.5545565805
1.49245185586
1.4392074498
1.40888076558
1.40918014352
1.44010558363
1.49394874558
1.55665222612
1.61029279277
1.63625862419
1.6185703271
1.5467703689
1.41787993129
1.23708319863
1.01701890715
0.775799593566
0.534098791325
0.3118074251
0.124835012022
0.116453553978
0.302481399871
0.528366483352
0.776578322813
1.02512968355
1.25114903468
1.43461495425
1.56160918349
1.62652813561
1.6328726065
1.59248110264
1.52334111853
1.44635836651
1.38164390967
1.34496226057
1.34495541846
1.38162338335
1.44632415597
1.52329322377
1.59241952367
1.63279734331
1.62643918821
1.56150655188
1.43449863841
1.25101903463
1.02498599928
0.77642095433
0.528195430654
0.302296662957
0.116255132848
0.116254073236
0.300657494837
0.529456438465
0.783499458037
1.03870300881
1.26999756249
1.45545281186
1.57987097564
1.63722906456
1.63154985214
1.57605281874
1.49073356005
1.39879167945
1.32252607061
1.2794083554
1.27901419202
1.32134358047
1.39682086256
1.4879744164
1.57250534833
1.62721405498
1.63210494064
1.57395852496
1.44875203443
1.2625084583
1.03042557787
0.774433700335
0.519602354007
0.290015083622
0.104823335265
0.115552361574
0.298303102433
0.529987649761
0.789833592996
1.05166107737
1.28820257713
1.47561889987
1.59743274172
1.647201711
1.62947055883
1.55883973943
1.45731294972
1.35038368408
1.2625386668
1.21295662904
1.21214688794
1.26010944351
1.3463349786
1.45164476204
1.55155206956
1.62056340676
1.63667507674
1.58528662527
1.46185330122
1.27281749629
1.03465651433
0.771209547768
0.509744122339
0.276440092818
0.0920698697642
0.114355279338
0.295485448562
0.530087708694
0.795768684697
1.06425221177
1.30607276673
1.49548227193
1.61472390097
1.65693585971
1.62718487689
1.5414523806
1.42375016897
1.3018656274
1.20247331078
1.14645905957
1.14526584986
1.19889368164
1.29589957885
1.41539770099
1.53071349321
1.61405957007
1.64142413347
1.59682575531
1.47519770685
1.28340178223
1.03919480785
0.768324861356
0.500257465931
0.263268786379
0.079752197734
0.112673894625
0.292273175807
0.529882832338
0.801488524704
1.07671777807
1.32390707183
1.51539944308
1.6321585429
1.66690317469
1.62522204482
1.52447755524
1.39068960528
1.25393947138
1.14308953901
1.08073275795
1.07924576323
1.13862855482
1.24650449773
1.38028064217
1.51109460267
1.60886510279
1.64757224321
1.60985362195
1.49012053267
1.29565417196
1.04549088875
0.767287645922
0.492707964097
0.252124318107
0.0695510474656
0.110518747667
0.288721748331
0.529473408784
0.807138425036
1.08924801222
1.34194065229
1.53565049712
1.65006167525
1.67747358762
1.62399691822
1.50837504287
1.35863596211
1.2071548434
1.0849819028
1.01641719942
1.01477102719
1.08004338612
1.19892398227
1.34711275653
1.49355949284
1.60588902374
1.65607334869
1.62536909187
1.50766556929
1.31066338001
1.05467839549
0.769276463856
0.488319103154
0.24427509825
0.0627797531358
0.107896129748
0.28486202739
0.528914869261
0.812798386895
1.10194748539
1.36030264928
1.55638914518
1.66861157911
1.68884994955
1.62373691812
1.49339683449
1.32786580043
1.1618128744
1.02847610307
0.953862654862
0.952216482637
1.0235375864
1.15358201327
1.31634259485
1.47858128446
1.60562902364
1.66744971063
1.64391899573
1.52840421735
1.329025377
1.06737786866
0.774936425715
0.48776056363
0.240415377309
0.0601571352172
0.104806040869
0.280694012984
0.528207213768
0.81846841028
1.11481619758
1.37899306278
1.57761538725
1.68780825447
1.70103226049
1.62444204451
1.47954293011
1.29837912024
1.11791356439
0.973572139828
0.893069124282
0.891582129552
0.969111155639
1.11047859074
1.28797015713
1.46615997754
1.60808510249
1.68170132901
1.66550333353
1.55233647685
1.35074016291
1.08358930826
0.784267531498
0.491032345527
0.240545155284
0.0616831937097
0.101242189745
0.276186843856
0.527295011078
0.82406849399
1.12774957763
1.39788275165
1.59917551222
1.70747342026
1.71381766937
1.62588487638
1.46656133872
1.26989936056
1.07515578241
0.919944312145
0.833686336787
0.832493127076
0.916364683013
1.06918973386
1.26154689259
1.45582245133
1.61275956956
1.69830594314
1.6895752746
1.57889094714
1.37521176715
1.10269217371
0.796624670649
0.497464768316
0.243970181673
0.0666391081409
0.0971940361435
0.271285055846
0.526077873099
0.829453326007
1.14055738957
1.41673655602
1.62078943628
1.72728206873
1.72683624453
1.62765055812
1.4539922808
1.24192181795
1.03298990109
0.866998068712
0.775074817136
0.77426507604
0.864568845422
1.02894119561
1.23625363027
1.44670461092
1.61874340605
1.71630961027
1.71513595228
1.60702383763
1.40135147518
1.12355282654
0.810829280779
0.505834345677
0.24942204623
0.0737115443338
0.0926505119687
0.265920006367
0.524429582757
0.834439114765
1.15299826736
1.43525553534
1.64210064439
1.74682011036
1.73961632196
1.62920985123
1.44124894335
1.21380210491
0.990713958462
0.813973873071
0.716417454382
0.716023291004
0.812791382936
0.988743141571
1.21104296126
1.43770147294
1.62487405406
1.73449219804
1.74090765969
1.63539986696
1.42776643115
1.14472083642
0.825373357063
0.514575498298
0.255277595152
0.081219773997
0.0876047568731
0.260024469519
0.522222548597
0.838837903258
1.16482388844
1.4531310015
1.6627400829
1.76565812593
1.75166811688
1.63001260538
1.4277208105
1.18486934003
0.947596707532
0.760080112683
0.656862270433
0.656855428325
0.760059586359
0.947562496992
1.18482144527
1.42765923153
1.62993734219
1.75157916947
1.76555549432
1.66262376706
1.45300100145
1.16468020417
0.838680534775
0.522051495899
0.259839732605
0.0874063357428
0.0820590186568
0.253547848334
0.519353328884
0.84249340498
1.17582512152
1.47010097845
1.68239293098
1.78342844987
1.76257111894
1.62958546546
1.41288168236
1.15454447864
0.903006258879
0.704632053355
0.595671686327
0.595971064273
0.705530187192
0.904503148607
1.15664012426
1.41557608387
1.63287862286
1.76646303223
1.78791911905
1.68748235605
1.47578915942
1.18211205838
0.849379097729
0.526837777524
0.261631052866
0.0907409790794
0.0760288304342
0.246469334508
0.515764773895
0.845312128792
1.18587213407
1.48599929223
1.70085667325
1.79989222536
1.77205012992
1.62761689183
1.39638367787
1.12244329826
0.856522048605
0.647172789773
0.532352455333
0.532840610698
0.648637255867
0.858962825429
1.12586038581
1.40077707615
1.63298660084
1.77839614966
1.80721455583
1.70915531445
1.49527424416
1.19612339673
0.856539702179
0.527968658012
0.259649529355
0.0901853360102
0.0695456922746
0.238806691858
0.511460911194
0.847284366004
1.19494148113
1.50078876163
1.71808039226
1.8149847987
1.78002675987
1.62401475827
1.37812093457
1.08844620019
0.808010741745
0.587555250717
0.466743769977
0.467289523873
0.589192512406
0.810739511226
1.09226647746
1.38303271963
1.63001805113
1.78712156052
1.82317110714
1.72735820849
1.51115808566
1.20640231295
0.859836705619
0.525104758601
0.253542047058
0.0853725552669
0.0626577348295
0.230619087941
0.506511945245
0.848491357988
1.20312544097
1.51457270184
1.73417844009
1.82883155888
1.78663743468
1.6189265276
1.35825195217
1.05272272104
0.757652911828
0.525971046623
0.399048277602
0.399531488049
0.527420677963
0.760068964063
1.05610519416
1.36260084619
1.62424184251
1.79291917049
1.83607971559
1.74239301769
1.52375370033
1.21327286036
0.859605198268
0.518592206419
0.243665770008
0.0766708377908
0.0554281832549
0.222003419559
0.501048444497
0.849097344837
1.21062192535
1.52758269624
1.74941607179
1.84173143259
1.79221475268
1.61271846978
1.33717667229
1.01570647407
0.70591584376
0.462921134041
0.329800606404
0.330134803067
0.463923724029
0.707586827072
1.0180458507
1.34018444226
1.61639463307
1.79655930929
1.84674438253
1.75509741505
1.53393243283
1.21764005526
0.856783868073
0.509403361058
0.231026729444
0.0651198864649
0.0479318126777
0.213084695662
0.49524565172
0.849327803144
1.21770664467
1.54014468908
1.7641694654
1.85411083171
1.79723535957
1.60591746434
1.31547220828
0.978024806453
0.65347711853
0.399133327786
0.25977880502
0.259927751385
0.39958016688
0.654221850354
0.979067431006
1.31681272556
1.60755587435
1.79917166231
1.85634502718
1.7667015536
1.54297467001
1.22083451833
0.852753569532
0.498969310838
0.217106247509
0.052251257254
0.0402499271503
0.204002062339
0.489300555042
0.849437563074
1.22469227114
1.55262919459
1.77886697721
1.86645595455
1.80224329571
1.59912539367
1.29379828456
0.940395284657
0.601112144645
0.3354408784
0.189873966029
0.18985926762
0.335396783174
0.601038652602
0.940292395798
1.29366599889
1.59896371118
1.8020522164
1.86623547842
1.77861710427
1.55234992483
1.22438360457
0.849099499679
0.488933094829
0.203605205309
0.0398236733037
0.032464643631
0.194892802602
0.483405603527
0.849674239747
1.23188158593
1.56539416
1.7939217205
1.87923508044
1.80776200648
1.59292086921
1.27278867863
0.903506852227
0.549565031703
0.272643061535
0.120940531138
0.120838959534
0.272338346724
0.549057173684
0.902795851002
1.2718745342
1.59180358157
1.80644157563
1.87771150638
1.79219500324
1.56346429953
1.22974858226
0.847338092861
0.480866313435
0.192150369302
0.0295190671233
0.0246533779438
0.185876989235
0.477723526921
0.850243219865
1.23952263271
1.57873028593
1.80966705285
1.89282422393
1.81421016339
1.58776521942
1.25294737592
0.867906151547
0.499425079049
0.211371833495
0.0536531136091
0.0535840973481
0.211164784712
0.499079997744
0.86742303772
1.25232622957
1.58700604055
1.81331295199
1.89178898001
1.80849377641
1.57741897697
1.23807329123
0.848655845862
0.475998120396
0.184013550188
0.0226519063744
