# vtk DataFile Version 2.0
Function: z = f(x,y,z)
ASCII
DATASET STRUCTURED_POINTS
DIMENSIONS 30 30 1
ORIGIN 0 0 0
SPACING 0.05 0.05 0.05
POINT_DATA 900
SCALARS density float
LOOKUP_TABLE default
0.0576711362233
0.0806655385317
0.103538690724
0.125929318953
0.147454210749
0.167733947199
0.186419577711
0.203216051558
0.217898759032
0.230320699809
0.240409386024
0.248154327941
0.253587540516
0.256760674865
0.257722918735
0.256503631457
0.253102813031
0.247491104127
0.239619316996
0.229435800522
0.216908539752
0.202048024418
0.184926742388
0.165691693986
0.144567488918
0.121849177912
0.0978857115603
0.0730565087749
0.0477447820269
0.0223118051625
0.149015170916
0.171282503904
0.193985919953
0.216565079403
0.2383793282
0.258779317924
0.277181673478
0.29313420979
0.306360811587
0.316778581061
0.324484623626
0.329715058469
0.33278360646
0.334010599665
0.333654870834
0.331860439168
0.328627304668
0.323811448132
0.31715403681
0.308334738635
0.297039832739
0.283033199934
0.266217734806
0.246676335163
0.224685116277
0.200696263222
0.175293151094
0.149125128313
0.122832848933
0.0969766526134
0.23990018731
0.263550355148
0.288193939223
0.313071534063
0.337285044032
0.359915191199
0.380144175966
0.397362678912
0.411243079202
0.421766581541
0.429199884626
0.434025716565
0.436839504141
0.438230260372
0.438666463011
0.438406791127
0.437451244721
0.435541144723
0.43220801338
0.426862837674
0.418910190822
0.407867344716
0.393467600658
0.375729753945
0.354981425411
0.331831934477
0.307099080741
0.281702142134
0.256539214291
0.232369702687
0.328958505847
0.355347806412
0.383287856391
0.4118201845
0.439789253517
0.466005856005
0.489417767863
0.509258535321
0.525149031983
0.537134565065
0.545651426548
0.55142895346
0.555344278499
0.558255095634
0.56083952762
0.563470913397
0.566149252964
0.568501207381
0.569848653895
0.569333898536
0.566079808605
0.559357047076
0.548729321967
0.534151326061
0.516002185757
0.495048354822
0.472342057357
0.449072500801
0.426395222374
0.405268693362
0.414739393597
0.444249524489
0.475867737972
0.508436496948
0.540542822615
0.570727578024
0.597704114571
0.620548844142
0.638831134773
0.652660396199
0.66264251368
0.669753433165
0.675151993267
0.679964568905
0.685078927838
0.690983068874
0.697676992013
0.704672698447
0.711082420417
0.715779783004
0.717605947594
0.715584968241
0.709110959681
0.698074512182
0.682906257707
0.66452978437
0.644231740776
0.623471263871
0.60366133246
0.58595948364
0.495806478969
0.527797261788
0.562453460375
0.59841847182
0.634021875736
0.667534605666
0.697435588503
0.722644101787
0.742678007989
0.757710819358
0.768518014437
0.776322148096
0.782563764861
0.788637920603
0.795642028084
0.80417874598
0.814248074291
0.825247354341
0.836079173368
0.845348475501
0.851614716214
0.853655340637
0.850694870226
0.842559792734
0.829732245689
0.813292951551
0.794762983427
0.775871407774
0.758288644979
0.743371297951
0.570838734717
0.603782526876
0.639949067979
0.677782689304
0.715355528881
0.750668590744
0.781966377283
0.808011031691
0.828268910876
0.8429776296
0.853082259689
0.860051964933
0.865608995773
0.871417089031
0.878783302471
0.888424954639
0.900342045535
0.913817256612
0.927543530107
0.939857129199
0.949035803445
0.953610389057
0.952635814207
0.945874464134
0.93385998193
0.917830224403
0.899540689162
0.880990372172
0.864107135404
0.850446647581
0.638719183091
0.670493476258
0.706047851548
0.743627574423
0.781047341331
0.816038226797
0.846610308708
0.87136859591
0.889727939748
0.901990057498
0.909269614267
0.913282382766
0.916032319351
0.919451841795
0.925057652863
0.933681730973
0.945324076123
0.959152709898
0.973650929532
0.986886317252
0.996854916702
1.00184095517
1.00072976755
0.99321963657
0.979895710877
0.962152981631
0.941981370942
0.921649804286
0.903343585215
0.888817448266
0.69859751591
0.726884816408
0.759509532205
0.794517862951
0.829467063511
0.861818278901
0.889347162505
0.910501588823
0.924644903635
0.93214292673
0.9342799165
0.933018254576
0.930643603227
0.929357061178
0.930884976196
0.936173986569
0.945224092295
0.957088655089
0.970041327183
0.981881009852
0.990322040827
0.993402038476
0.989836744409
0.979260338836
0.962309475976
0.940536281331
0.916165101516
0.891734791514
0.869688096462
0.851978816709
0.74991723195
0.772642719903
0.800262956331
0.830625075073
0.86102888941
0.888665614848
0.91107648027
0.926552225827
0.934404691738
0.935063800304
0.929983403199
0.921372490975
0.911798431817
0.903731005399
0.899106204492
0.898985327252
0.903368373678
0.911194045615
0.920526350293
0.928895508036
0.93373415066
0.932833287613
0.924739067222
0.909021567184
0.886368947282
0.858490467363
0.827844898545
0.797241025323
0.769379034414
0.74641179198
0.792403912858
0.808134800101
0.829317768997
0.85360088757
0.87802652752
0.899515974842
0.915376033917
0.92374031055
0.923869139394
0.916256545267
0.902525973124
0.885133022437
0.866926767305
0.850645668353
0.838435363357
0.83147181034
0.829755009302
0.832109002218
0.836388151316
0.839853995969
0.839657462078
0.83334295017
0.819287015292
0.796995632624
0.767208467514
0.731791914157
0.693439168174
0.655228943566
0.620118868636
0.590460875358
0.826017847499
0.834254936782
0.848501440894
0.866206362048
0.884154630359
0.898997602315
0.907807657793
0.90856126825
0.900467262778
0.884083768706
0.861203824274
0.834529637872
0.807191989515
0.78219802078
0.761903014444
0.747597588399
0.739281742646
0.73566485929
0.734391655557
0.732454989869
0.726724082212
0.714496724193
0.693979877576
0.664615415028
0.62719450746
0.583740683415
0.537181563014
0.49086578977
0.448008433568
0.411160492195
0.850880235343
0.85219078752
0.860068087704
0.871762072292
0.883800229819
0.892563987262
0.894891299997
0.888601505134
0.872851926198
0.848264793037
0.816802737169
0.781414575907
0.74551279518
0.712373217515
0.684560770693
0.663480732474
0.64913310286
0.640112604087
0.633854308377
0.627082393202
0.616384372633
0.598811429358
0.572400931856
0.536530650282
0.49204326111
0.44111942723
0.386921193266
0.333067132241
0.283029755621
0.239559127007
0.86718661276
0.863155037999
0.866247544422
0.873515002613
0.881227459524
0.885496412623
0.882925392783
0.871176602768
0.849355860538
0.818149498455
0.77968974132
0.737172015367
0.694290512438
0.654589736012
0.620844258872
0.594574018648
0.575779015341
0.56293931132
0.553280333801
0.543257579308
0.529176855995
0.507842737632
0.477122999414
0.436331308982
0.386361848375
0.329552414829
0.26929947747
0.209491538832
0.153858551962
0.105349646276
0.875123190505
0.868127555057
0.868813333969
0.874032332014
0.879797154559
0.881949369564
0.876858083399
0.862028364481
0.836514525208
0.801067000453
0.757987608301
0.710718383906
0.663235225026
0.619351316089
0.582050874881
0.552968498903
0.532104188153
0.517823345133
0.507141752056
0.496246224494
0.481160864689
0.458443637487
0.425792724803
0.382457691764
0.329384225971
0.269067259009
0.205137684506
0.141753934504
0.0829034036353
0.0317342871264
0.87480111462
0.867653554239
0.868744741396
0.874727415049
0.881356738983
0.88420435165
0.879404934915
0.86430642285
0.837911622288
0.801035070616
0.756148179203
0.706939592121
0.657666913044
0.612412007351
0.57436873783
0.545286361852
0.525164879415
0.512255033151
0.503362960271
0.494406795395
0.481128934852
0.459840734566
0.428070783171
0.38500454328
0.331639208057
0.270626843433
0.205832767542
0.141685341931
0.0824294028179
0.0314122112417
0.866220385106
0.861733035547
0.866041766702
0.875600251719
0.885906212798
0.892261358881
0.890565947331
0.878010777873
0.853547151777
0.818053708944
0.774171454023
0.72583564001
0.677585576491
0.633771809797
0.597797847719
0.571527607495
0.554961089126
0.546234375373
0.541943958445
0.537739292011
0.529081066484
0.51203402887
0.483957174519
0.44397186353
0.393126794632
0.334231168102
0.271384726576
0.209285761112
0.15243654951
0.104383418621
0.84926985592
0.849820783434
0.859725124838
0.875237487468
0.891598151942
0.903838897691
0.907625557577
0.899991796976
0.879837411596
0.848105143851
0.807605591674
0.76252061698
0.717671235269
0.677676673824
0.646150085438
0.62507004722
0.614436559168
0.612271044176
0.61496034945
0.617885247708
0.616224723448
0.605796914755
0.583791223699
0.549264907862
0.503318171539
0.448917349353
0.390396608443
0.332724169376
0.280659751534
0.237948747583
0.823763316306
0.830936931061
0.848021292883
0.871071943295
0.895071721331
0.914782476915
0.925635618405
0.92450767683
0.910246942334
0.883860259847
0.848327820581
0.808078095374
0.76821380564
0.733622859612
0.708128055087
0.693822629042
0.690706581477
0.696686675415
0.707940113059
0.719578986177
0.726500573352
0.72427640375
0.709926286156
0.68244337564
0.64297938206
0.594657774387
0.542047144261
0.490385641759
0.444690427846
0.408905961002
0.789505229895
0.803868792745
0.82870043584
0.859856634888
0.892062787341
0.919810813613
0.938297697561
0.944242835867
0.93644301311
0.915969176734
0.885971111234
0.851123896368
0.816811959464
0.788191889709
0.769296129899
0.762332576882
0.767301230657
0.781994194378
0.802379025247
0.823299134079
0.839370093544
0.845916823886
0.839789540609
0.819917296268
0.787503306286
0.745828173979
0.699694915491
0.654611610409
0.61585286128
0.587562192395
0.746374397218
0.767428710912
0.799508438028
0.838270988461
0.87818431808
0.913470417791
0.939091846946
0.951610867881
0.949772759612
0.934712572096
0.909749683112
0.879805781335
0.850547000012
0.827398609278
0.814602696932
0.814481819692
0.827035977557
0.849942613811
0.878959640653
0.908661787949
0.933382922452
0.948201355488
0.949797709276
0.93703693386
0.911173750224
0.875645896033
0.835490811933
0.79648650702
0.764165025423
0.742868957248
0.694410529408
0.720722805782
0.758617828755
0.803553942409
0.849741661031
0.891133046015
0.922456232213
0.940116347614
0.942807165668
0.931727838848
0.910367338215
0.883893961365
0.858255547458
0.83914604758
0.831017194534
0.836306204907
0.855013078697
0.88470059932
0.920917033971
0.957968431566
0.989906952945
1.01156430051
1.0194515032
1.01236940854
0.991624243091
0.960810878851
0.925201180974
0.890843088065
0.863526085837
0.847791830207
0.63388804482
0.663383463999
0.705018962953
0.754053819952
0.8044411077
0.849862958083
0.884813081448
0.905539471439
0.910684395941
0.901511109942
0.881678177783
0.856600505984
0.832507639617
0.81536221072
0.809825597099
0.818449675209
0.841234445049
0.875628030165
0.91696905275
0.959294880769
0.996375969146
1.02279741136
1.03490064308
1.03142240931
1.01372044216
0.985546748
0.952407616471
0.920620915691
0.896233572955
0.883986309995
0.565363444676
0.595724512981
0.638782994238
0.689599100904
0.741868464099
0.789003286201
0.825262853055
0.846738023956
0.852019561228
0.84243482237
0.821811965008
0.79581250458
0.770947692075
0.75344884048
0.748186972605
0.757828624772
0.782373796983
0.819155952914
0.863304069754
0.908586834518
0.948492996215
0.977361039408
0.991362806472
0.989170939906
0.972194677388
0.944343159621
0.911357100761
0.879824298431
0.856049121509
0.84497135754
0.489687037158
0.518791246259
0.561150201488
0.611625049491
0.663653979804
0.710379265295
0.745825767307
0.765927210789
0.7692228525
0.757104152454
0.733568861558
0.704525104172
0.676765837198
0.656791054576
0.649681424116
0.658218142012
0.682401208263
0.719449426678
0.764282129444
0.810399322622
0.851008049309
0.880200185147
0.893977979229
0.890949971538
0.872576905318
0.842925055619
0.807969561097
0.774568148887
0.749282629449
0.737251856141
0.407975800017
0.434295507325
0.474427293938
0.523033240689
0.573294095532
0.618082201824
0.651187996407
0.668388069881
0.668170173443
0.65198986962
0.624014502603
0.59039880567
0.55821744164
0.534239085401
0.523754049768
0.529658190804
0.551951508509
0.587738146819
0.631727792922
0.677151771927
0.716935421016
0.74492400691
0.756950185421
0.751558394018
0.730260881507
0.697281057287
0.658828484516
0.622030819838
0.593707315296
0.57919589006
0.321550760498
0.344445787613
0.381710227212
0.427807094311
0.475659695283
0.517870443977
0.547995352731
0.561653877798
0.557282264811
0.536400178812
0.503344557274
0.464516742395
0.427273102908
0.398650994653
0.384150375449
0.386781761225
0.406545151982
0.44043003179
0.48293644283
0.527027029261
0.565345422353
0.591490279904
0.601124664444
0.592728910929
0.567866773728
0.530918796587
0.488328967168
0.447494871621
0.415493203576
0.397860948013
0.231848290192
0.251700334715
0.286479124898
0.330448609945
0.376274654647
0.416289743342
0.443815463866
0.454314138126
0.44617050619
0.420968335614
0.383214157154
0.339555921929
0.297631704585
0.264747541914
0.246613036737
0.246353364854
0.263968526264
0.296333345167
0.337738218744
0.380877110202
0.418111944895
0.442794771703
0.450419059872
0.439401041845
0.411355977554
0.370821545092
0.324476156623
0.279987327808
0.244689193858
0.224317805568
0.140319122028
0.158484481836
0.192133920481
0.235332321355
0.280488107664
0.319663834238
0.34594666441
0.354641785741
0.344082432734
0.31591647546
0.274820037956
0.227687680262
0.182439182939
0.14664926373
0.126237170459
0.124442738793
0.141265968734
0.173467024611
0.215126658602
0.258670152965
0.296177727138
0.320754821081
0.327725310757
0.315441326095
0.285569632592
0.242805042686
0.194060393047
0.147273128841
0.110034826865
0.0882806037254
0.0483309355657
0.0669195148293
0.101549506106
0.146086726976
0.192682159062
0.233128427685
0.260278271675
0.269279744246
0.258414574337
0.229394734534
0.187065942156
0.138569366163
0.0921064930313
0.0555207214543
0.0349409442574
0.0337216569795
0.0518628596204
0.0860100566415
0.130034355217
0.176092356654
0.215982574477
0.242563839724
0.250990435076
0.23955038795
0.209961969404
0.167077126225
0.118043119583
0.0710673241573
0.0339987583244
0.012971604505
