# vtk DataFile Version 2.0
Function: z = f(x,y,z)
ASCII
DATASET STRUCTURED_POINTS
DIMENSIONS 30 30 1
ORIGIN 0 0 0
SPACING 0.05 0.05 0.05
POINT_DATA 900
SCALARS density float
LOOKUP_TABLE default
0.0852155594941
0.219637287648
0.35338347944
0.48444132344
0.610675778736
0.729972939966
0.840388653825
0.940279066265
1.02839278034
1.10391079425
1.16642924703
1.21588969586
1.25247050979
1.27645945931
1.28813059045
1.28764747662
1.27501011783
1.25005494065
1.21250789907
1.16208122258
1.09859654215
1.02211230059
0.933032358858
0.832175718764
0.72079377725
0.600530388366
0.473329705416
0.341305633762
0.206593214316
0.0712052585078
0.119741671087
0.253089072933
0.388866080401
0.523950801105
0.654773876743
0.777717508971
0.889531465115
0.987696428335
1.07067404212
1.13800244724
1.19022265958
1.22865020033
1.25503294291
1.27115559453
1.27846022339
1.27774922216
1.26902259085
1.25147793678
1.22367319175
1.18382364855
1.13018143375
1.06143102618
0.977031409945
0.877444444273
0.764208485678
0.639842850997
0.507597772908
0.371091049751
0.233892039831
0.0991226355336
0.154085907506
0.287194982808
0.425838805718
0.565786402892
0.702034098636
0.829460201629
0.943508399822
1.04078391359
1.11946142684
1.17943622293
1.22219419461
1.25042482705
1.26744549804
1.27653785153
1.28031197787
1.28020908901
1.27622918495
1.26693105374
1.24970460503
1.22126819488
1.17830444548
1.11812387166
1.03924058069
0.94175928921
0.827505313298
0.699873432586
0.563419959123
0.423266584229
0.2844169836
0.15110213058
0.187706357981
0.321114507785
0.463162547183
0.608510421873
0.75072013877
0.883166113573
0.999985954862
1.09690942022
1.17182423398
1.2249828221
1.25881595416
1.27738707933
1.28558307977
1.28818253618
1.28896356105
1.2900061856
1.29131040984
1.29079620254
1.2846854512
1.26819957514
1.23645169218
1.18537835317
1.11254878851
1.01771057226
0.902975980078
0.772615254381
0.63249078659
0.489228161005
0.349265370713
0.217942470015
0.220028203804
0.353886666782
0.499490161339
0.650389552217
0.798712528939
0.936329614223
1.05607233728
1.1527949929
1.22409834585
1.27059196466
1.29565149578
1.30471435234
1.30423692092
1.30049471891
1.29843388098
1.30077325761
1.30751284882
1.3159338041
1.3210899888
1.31670588551
1.29632510766
1.25451024213
1.18788564245
1.09584174011
0.980777770324
0.847839438313
0.704195214865
0.557974577262
0.417049835978
0.287870126274
0.25048231661
0.38453743717
0.533442731294
0.689639982767
0.84382256372
0.986357103895
1.10876905312
1.20503724341
1.27247547996
1.31205047387
1.32808274845
1.32738368083
1.31797916194
1.30764164593
1.3024852896
1.30586776273
1.31778906531
1.33489152758
1.35106099273
1.35852500661
1.34925767828
1.31644763064
1.25577434034
1.16627109631
1.05062409334
0.914854499421
0.767436864724
0.618004559509
0.475864211641
0.348574037339
0.278545270508
0.412191756303
0.563793557649
0.72468337737
0.88412027021
1.03096697293
1.15544285599
1.2506512886
1.3136191164
1.34567019306
1.35206991875
1.34100363459
1.3220667359
1.30452861353
1.29567144646
1.29949172374
1.31598944535
1.34116812227
1.36774557551
1.38645241422
1.38769324307
1.36328272096
1.30795544771
1.22038756964
1.10355224113
0.964346092964
0.812549754672
0.659300489499
0.515339242701
0.389333311455
0.303774489409
0.436171346573
0.589628661272
0.754370055376
0.918220266235
1.06853813763
1.19423696065
1.28754464172
1.3452010669
1.36888723245
1.36481341539
1.34253892083
1.31322864846
1.28764892587
1.2742499542
1.27766704175
1.29790018853
1.33031408622
1.3664585337
1.39556720336
1.40647519553
1.38962320509
1.33880095501
1.25232744905
1.13346280113
0.989979104844
0.832963069091
0.675055850093
0.528432710499
0.402870028441
0.325833058751
0.456062035071
0.610456610912
0.778131327185
0.945476603851
1.09834739171
1.22435090248
1.31483957979
1.36626635015
1.38066935237
1.36520374034
1.33080278317
1.29020088491
1.25566130989
1.2368022814
1.23889792702
1.26194824675
1.30067911301
1.3454723025
1.38406455092
1.40372145418
1.3935097432
1.34627426408
1.25997687801
1.13816465848
0.989485161856
0.826331176428
0.662847751393
0.51264446679
0.386606781709
0.344500478048
0.471739475083
0.626249213625
0.796035153626
0.966053397658
1.12065500354
1.24614110362
1.33298867873
1.37736369582
1.38166143627
1.35398193084
1.30663241261
1.25391679002
1.20959526413
1.18445408038
1.18440618562
1.20945157987
1.25367731624
1.30629714932
1.35355087804
1.38113459396
1.37674106399
1.3322702574
1.24532689277
1.11974500318
0.96504760779
0.794933574248
0.625051844735
0.470446316681
0.343111530135
0.3596680155
0.483349324732
0.637406517457
0.808735972669
0.980859475549
1.13662419093
1.2610251718
1.34366393621
1.3804194915
1.37404426167
1.33358315432
1.27271736651
1.20732031108
1.1526491258
1.12065807827
1.11789893462
1.14437169485
1.19352459283
1.25340336097
1.30875086148
1.34369368154
1.34455062407
1.30227678148
1.21411972978
1.08420046162
0.922917458933
0.745275668757
0.568427926248
0.408852446227
0.279652849698
0.371319936507
0.491245762799
0.644652614569
0.817327789855
0.991358756445
1.1480887862
1.27120685272
1.34943901127
1.37837730964
1.36113131439
1.30769080998
1.23311095745
1.15483467404
1.08961603423
1.05057732779
1.04490914011
1.0726114712
1.12649373565
1.19343364371
1.25667712087
1.29878124993
1.30469086982
1.2644161961
1.17484766219
1.04039322031
0.872326815203
0.686959473256
0.502947922614
0.338204695488
0.206942493839
0.3795042635
0.495899370587
0.648880645137
0.823126304231
0.999289498267
1.15720960612
1.27926952203
1.35331983847
1.37466564364
1.3467736467
1.28057850897
1.19250935547
1.1015786078
1.0260372772
0.980175675577
0.971823207604
1.00097987328
1.05981626794
1.13404207965
1.20540629721
1.25489649899
1.26608355999
1.22803281887
1.13727756648
0.998512714629
0.823887670826
0.631019540844
0.440068945803
0.270382735306
0.137282692272
0.384298473154
0.497790646196
0.650974128688
0.827418056751
1.00634126339
1.16607923451
1.28770878497
1.35820504445
1.3725861416
1.33467592813
1.25635394223
1.15542327291
1.05246584616
0.967229609928
0.915172898285
0.904763935177
0.936002720606
1.00042103062
1.08256053116
1.16267327426
1.22017733395
1.2372696212
1.20207059784
1.11075641214
0.968308935471
0.787753038136
0.58801190528
0.390750051001
0.216748642295
0.0824385430372
0.385776347089
0.497307838752
0.65163578185
0.831220231548
1.01384570346
1.17634379051
1.29848522818
1.36636968337
1.37472832515
1.32774214782
1.23823556642
1.12538563396
1.01134378078
0.917354891583
0.860045322586
0.848522117009
0.882785274853
0.953727752901
1.04472319492
1.13452671624
1.20098688648
1.22492665266
1.19352159973
1.10259073338
0.957402884558
0.771858386357
0.56618650329
0.36355564244
0.186181288189
0.0516033853724
0.383981924302
0.494666977056
0.651253623229
0.83509283703
1.02253481668
1.18890726213
1.31267482949
1.37906172285
1.38251215174
1.32756425302
1.22798731859
1.10433236544
0.980320328311
0.878693028612
0.81724484473
0.805721639154
0.844123411883
0.922704300428
1.0236699264
1.1242784684
1.20080899168
1.23271047924
1.20621363921
1.11678033469
0.969966356179
0.780547499579
0.570059108773
0.363173483819
0.183540426492
0.049808962586
0.378915204794
0.489868061107
0.649827652825
0.839035873198
1.03240860306
1.20376964937
1.33027758888
1.3962811629
1.39593762135
1.33414224371
1.22560919872
1.09226346736
0.959395488744
0.851244021017
0.786771464719
0.776362501612
0.820017131694
0.907350673207
1.0194007256
1.13192853075
1.21964364953
1.26062110096
1.24014671628
1.15332521605
1.00599935033
0.813820377805
0.599629721726
0.389603575138
0.208826057205
0.0770552746779
0.370532149568
0.482695062104
0.646969852032
0.842489331642
1.04273506438
1.22002696423
1.35021752855
1.41678003588
1.41358477657
1.34588417267
1.22933726978
1.08724301287
0.946461345441
0.832727962349
0.766173286301
0.757820818328
0.807670558429
0.904699005574
1.02877573706
1.15416505802
1.25400702496
1.30500269292
1.29149301628
1.208225573
1.06133007273
0.86733323694
0.650382568255
0.438158152697
0.257178426823
0.12831057834
0.358758977002
0.472759730923
0.641977504221
0.844436028231
1.052182549
1.23603308754
1.37053406184
1.43828328765
1.43286409574
1.35988605074
1.23595307512
1.08573807782
0.937670506731
0.818982993436
0.750973982799
0.745305795121
0.801978430402
0.90932956834
1.04606076407
1.18493938602
1.29753598628
1.35917765592
1.35326047247
1.27417487131
1.12833752166
0.933150607762
0.714067711632
0.500272812266
0.319718663612
0.194381534334
0.343518210422
0.459581569463
0.633967089867
0.843589422009
1.05906149455
1.24969543552
1.38873158353
1.45789229154
1.45047393077
1.37244320841
1.24134892379
1.08323794984
0.928109238823
0.804692359061
0.735453777568
0.73269463392
0.796414928116
0.914313520581
1.0639239443
1.21651663095
1.34209262828
1.41460506334
1.41650513682
1.34182614151
1.1972717062
1.00111947794
0.780129118097
0.564988498658
0.385084690958
0.26350304462
0.324761827397
0.442689996421
0.622045468792
0.838633813931
1.06163364311
1.25885319136
1.40222671795
1.47260111304
1.46298578826
1.3797045934
1.24125120464
1.0750464589
0.912658812825
0.784314771457
0.713648823973
0.713600929217
0.78417108719
0.912419339047
1.07471119561
1.24082015184
1.37917775109
1.46236315644
1.4718826917
1.40141250711
1.25794319101
1.06062785324
0.837532234552
0.620848099902
0.44139683802
0.323372879485
0.302505562527
0.421730833016
0.605488548837
0.828475198454
1.05843507575
1.26167252278
1.40881571942
1.47983609306
1.46745609576
1.37835671988
1.23197651847
1.05711029242
0.886896002767
0.753057091276
0.680396069282
0.682491714901
0.759344028134
0.897374230863
1.07177981175
1.25083732904
1.40140882169
1.49469948881
1.51127077735
1.44444169495
1.30148978954
1.10244363375
0.876675047697
0.657879689319
0.478313264735
0.363279285485
0.276858147613
0.396558421125
0.583896281956
0.812459137609
1.04855696458
1.25699021194
1.4070809802
1.47792523395
1.46195846569
1.36621881035
1.21108969784
1.02673989304
0.84787686137
0.707720981314
0.632242786369
0.635659873922
0.717972243973
0.864962299134
1.05065950591
1.24184348581
1.40380677343
1.50638060388
1.52918154724
1.4651714686
1.32191487544
1.12031580319
0.891052151324
0.669323470776
0.488819785051
0.375953686645
0.248040083139
0.367297107462
0.55729686109
0.790517670568
1.031835195
1.24454599047
1.39666607814
1.46641595979
1.44594416836
1.34264598135
1.17784970553
0.983098069768
0.794668043864
0.647276943032
0.568063322923
0.571883600197
0.658737774854
0.813769430234
1.00984001069
1.21223220099
1.38466903136
1.49560777292
1.5237201189
1.4616107918
1.31713125868
1.11206101775
0.87838404787
0.65280379294
0.47044459386
0.358828124085
0.216388283668
0.334361064935
0.526181717493
0.763219486929
1.00891571495
1.22506306468
1.37837147789
1.44618599357
1.42036818509
1.30867047255
1.13336603955
0.927371578965
0.728533564961
0.573066249486
0.489276210347
0.492658683475
0.583213668871
0.745445930604
0.951048890865
1.16380829771
1.34587767696
1.46434033577
1.4969230905
1.43587352108
1.28933005413
1.07994765065
0.841016368886
0.610743545707
0.425687839407
0.314480004397
0.182345325289
0.298428571155
0.491464830296
0.731714267344
0.981183906616
1.20016251825
1.35405396465
1.41932782202
1.38755870415
1.26685617372
1.08043829121
0.862595713445
0.652744418996
0.488595596531
0.399623846015
0.401963222652
0.495613726441
0.664441302181
0.878971349903
1.10149268094
1.29258931673
1.41797060043
1.45441847157
1.39382336748
1.24461067435
1.03031081599
0.785519929992
0.549949246218
0.361591740351
0.250187247759
0.146434633893
0.260374688764
0.454372898897
0.697580347964
0.950569742893
1.17212596084
1.32634678484
1.3888263283
1.35085224546
1.22089124155
1.02310625392
0.793161903392
0.572043672906
0.398959687858
0.304552570375
0.305595194927
0.402087561517
0.577256795671
0.800460275262
1.03248987489
1.23236011163
1.36440636465
1.40446569659
1.34407140224
1.19193582735
0.972464858504
0.721560712681
0.48043851272
0.288525551693
0.176670745927
0.109225337845
0.221173440394
0.41628484019
0.662601539948
0.919261929205
1.14354699214
1.29824843241
1.35808490063
1.31405709148
1.17498885277
0.965987998696
0.724093114075
0.491859186223
0.309991277265
0.210300031484
0.210197142624
0.309682610686
0.491344741925
0.723372892058
0.965061998961
1.17385707532
1.31271953631
1.35654156774
1.2964993218
1.14159210381
0.917101263155
0.660235096179
0.413712618702
0.218395441187
0.106241560919
0.0712922558538
0.181785807126
0.378547797631
0.628511149126
0.889379933757
1.11693124272
1.27265070031
1.33038149435
1.28083735993
1.13319928746
0.91351996799
0.66021195032
0.417399726148
0.227285294325
0.122847321293
0.122136320067
0.225152290647
0.413844720018
0.655234941738
0.907120956956
1.12537827397
1.27159434399
1.31971647596
1.26056367947
1.10342221943
0.874448908011
0.612158120928
0.360772766981
0.162588774024
0.0506732203
0.0331772986877
0.143052298449
0.342300879428
0.596746882425
0.862660062195
1.09431361696
1.25188709162
1.30834821124
1.25412375133
1.09875184486
0.869230059762
0.605344908809
0.352790388082
0.155265433161
0.0469167326425
0.0464336188154
0.153816091679
0.350374818947
0.601963112019
0.864882035318
1.09343759277
1.24784327158
1.30110150383
1.24367415656
1.08513445424
0.852514671826
0.585635264401
0.33022303375
0.130008225117
0.0191669977014
