# vtk DataFile Version 2.0
Function: z = f(x,y,z)
ASCII
DATASET STRUCTURED_POINTS
DIMENSIONS 30 30 1
ORIGIN 0 0 0
SPACING 0.05 0.05 0.05
POINT_DATA 900
SCALARS density float
LOOKUP_TABLE default
0.0628357155865
0.106722741491
0.150384588608
0.193150319795
0.234308254746
0.273153758343
0.309038779482
0.341415366815
0.369866388027
0.394118842518
0.414038109962
0.429604709426
0.440878097254
0.447954196948
0.450924357181
0.449843102425
0.44471043268
0.435471823475
0.422035926135
0.404306817159
0.382225040202
0.3558100762
0.325196545477
0.290657448632
0.25260991798
0.211601904872
0.168281460408
0.12335321971
0.0775288630812
0.0314793276648
0.143526389698
0.186621235597
0.230525950037
0.274199902222
0.316453306052
0.356080228745
0.39199725941
0.423364625767
0.449669542311
0.470758055969
0.486810505367
0.498265397569
0.505705357043
0.509725286202
0.510805874437
0.509214585979
0.504951420828
0.497748914753
0.487126378361
0.472488909244
0.453253882929
0.428982792355
0.399495298895
0.364945355621
0.32584574804
0.28303624843
0.237600267684
0.190743738582
0.143656447226
0.097379024411
0.223810009847
0.267983722834
0.314002351691
0.360455571969
0.40567549177
0.447954880654
0.485774967939
0.518004160413
0.544034019384
0.563829639302
0.577886317749
0.587100549781
0.592578127996
0.595412933714
0.596474997046
0.596244721979
0.594722108514
0.591426752664
0.585488624315
0.57581384215
0.56129661357
0.541040443519
0.514550034415
0.481860291807
0.44357965439
0.400839715372
0.355159245438
0.308245475027
0.261766296037
0.217132032917
0.302473728122
0.348929062919
0.398264360914
0.448699604007
0.498088794502
0.544223404299
0.585149302925
0.619443076239
0.646400632358
0.666106113259
0.679369775476
0.687546102061
0.692264053739
0.695116490737
0.697362783888
0.699696276935
0.702116969878
0.703931518973
0.70388055339
0.700371212899
0.691774536776
0.676736041969
0.654445471944
0.624818684724
0.588559772192
0.547092148489
0.502369944088
0.456601687089
0.411933375188
0.370145026484
0.378231045511
0.427306488669
0.480296942353
0.535052694811
0.588949642551
0.639277959811
0.683648156328
0.720344997033
0.748568736851
0.768522565285
0.781331697823
0.788808605511
0.793105417202
0.796313972032
0.800082981552
0.805318729263
0.812021215165
0.819284155757
0.825458839489
0.828453427223
0.826115790108
0.816633457096
0.7988812127
0.772655867418
0.738757166323
0.698900344485
0.655474892168
0.611190635132
0.568671676869
0.530067729134
0.449808198526
0.500936044672
0.557013948673
0.615522505123
0.673359504733
0.727313824084
0.77456061312
0.813092815842
0.842015033985
0.861649504579
0.873436402065
0.879646185483
0.882954151813
0.885951119102
0.890675139617
0.89824543662
0.908662010108
0.920805636824
0.932638264497
0.941569075083
0.944922771602
0.940428895012
0.926647270873
0.903255662155
0.871149467123
0.832335741777
0.78963933617
0.746271373724
0.705334063728
0.669346811586
0.516033710178
0.567859257393
0.625669909792
0.686576568317
0.74699891788
0.803224537403
0.85199321704
0.891006079861
0.919272074412
0.937232485248
0.946642445763
0.950230402994
0.951194822046
0.952625499875
0.956949829469
0.965499973844
0.978275933001
0.993945543922
1.01008141362
1.02359374514
1.03128407338
1.03042395129
1.01925824549
0.997345671417
0.965677280531
0.926551949758
0.883229888945
0.839423519171
0.798713155522
0.763987897057
0.575917053025
0.626558076942
0.684219253371
0.745641789602
0.806767264751
0.863381960078
0.911790305947
0.949401604499
0.97512915109
0.989533277801
0.994684076977
0.993767983652
0.990506631058
0.988488795059
0.990531209363
0.998178976744
1.0114320972
1.02874546796
1.04730235531
1.0635139834
1.07365871898
1.07455012703
1.0641181152
1.04180235141
1.0086895403
0.967370379733
0.921540439345
0.875413437875
0.833047796206
0.797702307049
0.628704180192
0.676105544907
0.731562109462
0.791445387495
0.851218852325
0.906167487552
0.95216036375
0.98631496213
1.00744892486
1.01624163154
1.01507813347
1.00760285369
0.998060593542
0.990539107812
0.988244470922
0.992934725403
1.00460987126
1.02151186595
1.04043463505
1.0572904238
1.06783443083
1.06842223311
1.05666877935
1.03189468993
0.995282322695
0.94971419643
0.899321240562
0.848818471492
0.802742415899
0.764721560146
0.673901590593
0.716223361499
0.767635379574
0.824139464802
0.880720984706
0.932163625227
0.973901097147
1.00275906075
1.017459505
1.01880085705
1.00948312713
0.993608726281
0.975945623981
0.961080553912
0.952608931221
0.952501738197
0.960758974838
0.975409658858
0.99285837511
1.00851838991
1.01762173378
1.01606599568
1.00115116538
0.972078815732
0.930126957763
0.878469931193
0.821674025239
0.764955553963
0.713329149839
0.670792992884
0.711265932103
0.74723752347
0.793334409333
0.845188716026
0.897307705275
0.943973765359
0.980185247271
1.00247599036
1.00947233041
1.00209174209
0.983349194598
0.95780508695
0.930750556762
0.907271316624
0.891352122403
0.885176896142
0.888745637842
0.899874425459
0.914578503126
0.927772158253
0.934164253226
0.929194389027
0.909847596452
0.875206400841
0.826644466408
0.767627953803
0.703158512033
0.638953752819
0.580506414434
0.532184370547
0.740761989188
0.76994071666
0.810279785958
0.857041629762
0.904255404
0.945702199293
0.975945006841
0.991225845067
0.990075396564
0.973530183521
0.944920134093
0.909263635293
0.872374992863
0.839838898302
0.816029448196
0.803343504344
0.801781066749
0.808945273607
0.820462028335
0.830746639432
0.833984801158
0.825158126499
0.800936687299
0.760283961371
0.70466926612
0.637850583125
0.565264921184
0.493131189678
0.427420232678
0.372869617503
0.762497240623
0.785386146845
0.820470442222
0.862642865781
0.905454467653
0.942185040798
0.966962216628
0.975736192634
0.966941998219
0.941735203099
0.903760694381
0.858494847074
0.812275135047
0.771185228707
0.739988565359
0.721294946561
0.715104372314
0.718807041059
0.727639515491
0.735518125203
0.736105396326
0.723924953851
0.69533191067
0.64917069707
0.587006283645
0.512888472904
0.432689633437
0.353129972284
0.280658439312
0.220382295494
0.776645086584
0.794649214536
0.825883778971
0.864871825264
0.90468629775
0.938105691728
0.958822278818
0.962494435583
0.947461538237
0.914998204019
0.869064278991
0.815594126156
0.761448387511
0.713209712371
0.676030878762
0.652734627997
0.643320960078
0.644967133689
0.652520370806
0.659398022112
0.658739445611
0.644610278301
0.613050674118
0.562786015825
0.495476927205
0.415465031699
0.329058057685
0.243477509863
0.165650443899
0.101053814418
0.783370657365
0.79859885825
0.828092542946
0.866005063176
0.904931257478
0.937148323492
0.955913173046
0.956592361773
0.937429612698
0.899818590585
0.848034100449
0.788468493291
0.72850557923
0.675226986494
0.634174833826
0.608384802298
0.59785689191
0.599555421589
0.607938272593
0.615923816696
0.616128243775
0.602159202831
0.569741888851
0.517482637067
0.447137724456
0.363340595386
0.272834338028
0.183341754742
0.102268006989
0.0354597430476
0.782772516436
0.797718571017
0.827965156739
0.86729593167
0.907827628552
0.941336147365
0.960643040147
0.960823041601
0.94002422156
0.899759292316
0.844618017837
0.781450737118
0.718164428406
0.662339698837
0.619908007874
0.594117976346
0.584969604253
0.589214270765
0.60092051642
0.612507734084
0.616068945506
0.604753811693
0.573972568678
0.522212504168
0.45132554833
0.366236966461
0.274125206522
0.183214368535
0.101387719757
0.0348616021188
0.774850663797
0.79200835284
0.82550162035
0.868744430746
0.913375410972
0.950669163348
0.973011880122
0.975186475065
0.955245364823
0.914820309212
0.858816031154
0.794540857637
0.730424935039
0.674547849401
0.633230400907
0.609934150142
0.604659097108
0.613943681217
0.631467102287
0.649149774275
0.658561550805
0.652394104886
0.6257427136
0.576975617128
0.508040398826
0.424154144921
0.332930663167
0.243095351242
0.163009582203
0.0992593916319
0.759506535979
0.780984710684
0.819833511187
0.869097208251
0.919936323024
0.963124160166
0.990611552134
0.99688959177
0.979915042529
0.941438711755
0.88668028132
0.823406066209
0.760569380926
0.706748790422
0.6686544356
0.649960816802
0.65066793403
0.667101286938
0.692550734626
0.718437712142
0.735808904982
0.736897998161
0.716485309807
0.672820032576
0.607945403012
0.527370328275
0.439143975907
0.352493041248
0.276257003151
0.21739159085
0.736575002686
0.763778706035
0.809388082509
0.86607770922
0.92453000152
0.975016966407
1.00905407655
1.02084060386
1.0082376586
0.973115095639
0.921007555807
0.860139342082
0.799986937094
0.749627884704
0.716161666533
0.703475722682
0.711570053151
0.736557217838
0.771337735124
0.806834061146
0.833569713276
0.843320388532
0.83055144609
0.793393031079
0.733984033234
0.658125180645
0.574301000643
0.492239486229
0.421258222052
0.368682631001
0.705882663744
0.73931493838
0.79218793347
0.856806532473
0.923375044943
0.981664180221
1.02275405118
1.04055210881
1.03282381017
1.00155805767
0.952604451088
0.894645281393
0.837680199344
0.791285727712
0.762950688837
0.756775462576
0.77276004893
0.806804068041
0.851418697569
0.897027414743
0.933630568806
0.952545868784
0.947923714898
0.917775204751
0.86433488127
0.793695293471
0.71477632848
0.637807276956
0.572583829344
0.526801102187
0.667322040376
0.706540201945
0.766234131296
0.838339018237
0.912581066523
0.978229687836
1.02592963526
1.04929653885
1.04600020248
1.01814857609
0.971906218398
0.916413408378
0.862192964915
0.819320389686
0.795673845752
0.795566652728
0.818998810613
0.861656999792
0.915663057207
0.970941481178
1.01696945282
1.04460669317
1.04768864348
1.02410735384
0.976193020371
0.91033001301
0.835873578674
0.763554305685
0.703645990285
0.664213442667
0.620928348118
0.664661810889
0.729906088771
0.808226677918
0.88887167629
0.960609197908
1.01364863607
1.04131379988
1.04117884006
1.01547075404
0.970669059512
0.916372023437
0.863625632828
0.823004368273
0.802775733549
0.807465988031
0.837075131716
0.887076905234
0.949203804806
1.01288134984
1.06706355334
1.10215214832
1.1116676171
1.09338296225
1.04972403305
0.987367020395
0.916102530985
0.8471624508
0.791298681881
0.756945728072
0.566944939093
0.61335376846
0.682308460266
0.765004817013
0.850212830864
0.92619931818
0.982738312464
1.01286180191
1.01404828402
0.988643803768
0.943442837794
0.888501641057
0.835389368696
0.795179480206
0.776528820087
0.784176587467
0.818122782347
0.873628205596
0.942036012718
1.01227274421
1.07276924495
1.11346925996
1.12757831261
1.11275035793
1.0715068984
1.01081594585
0.940903466756
0.873502644769
0.819843487723
0.788730193117
0.505865314388
0.552894374446
0.623504344273
0.708521332716
0.796237226142
0.874417543252
0.932400957759
0.962927636925
0.963380425064
0.936224414678
0.888569041355
0.830928548053
0.775395258035
0.733541609708
0.714413788289
0.722963932665
0.759192042834
0.818145979911
0.890779558679
0.965520340732
1.0302760028
1.07453230194
1.09117980255
1.07775341214
1.03687028638
0.97579025802
0.905174653344
0.837257953651
0.783748272575
0.753819501267
0.438443520879
0.484210587261
0.554593610739
0.64004900651
0.728390555144
0.80688247768
0.864428088042
0.89347573256
0.891312602361
0.860522837471
0.808530832432
0.746308818196
0.686472286154
0.641092653621
0.619605446534
0.627175743536
0.663803544627
0.724323771164
0.79930089721
0.876663505451
0.943796104494
0.989726463388
1.00703018759
0.993123137077
0.950718120719
0.887366792187
0.814165837558
0.743851035791
0.688608606317
0.657982133939
0.365670086006
0.408820456793
0.477621832005
0.562160933187
0.64977343511
0.727222261154
0.782975365452
0.809189273407
0.803055522951
0.767277301639
0.709593962966
0.641435725878
0.575941249894
0.525680931238
0.500479636565
0.505715384276
0.541388174371
0.60211998845
0.678085959856
0.756715692366
0.824870526462
0.871120243196
0.887725489074
0.871983076542
0.826701467666
0.759724137044
0.682583130543
0.608515524784
0.550185644994
0.517506769629
0.288716486759
0.328682456579
0.395334478153
0.478389579371
0.56470532921
0.640543353389
0.693936246251
0.716748712267
0.706076636182
0.664742253076
0.600799875395
0.526137710082
0.454417584782
0.398708874629
0.369225786997
0.371559280044
0.40570935377
0.466085050017
0.542472161411
0.621801312818
0.690410676592
0.736412045793
0.751751107972
0.73360562805
0.684879721282
0.613708683197
0.532059919452
0.453671804327
0.391686768848
0.356387785122
0.208856486627
0.24597654203
0.310817696515
0.392727284321
0.478084768626
0.552650477492
0.604021645467
0.623771156096
0.608899240932
0.562347182581
0.492484252443
0.411656645456
0.334049357392
0.273230742293
0.239804348252
0.239574073186
0.272539917093
0.332897982059
0.41004471999
0.490411776844
0.559814156849
0.605905665067
0.620317030098
0.600106969336
0.548275251227
0.473248992228
0.38743095779
0.305060819851
0.239759115232
0.202178509696
0.12737658462
0.162853480328
0.227086522447
0.309053351562
0.394655325056
0.469151473329
0.519703671141
0.537592981104
0.519723981583
0.46915700271
0.394576274837
0.308785980897
0.226494284791
0.161768519467
0.12560157374
0.124010285282
0.156994654092
0.2185378425
0.29764696169
0.380254678713
0.45165282967
0.499037231627
0.513723654232
0.492651767352
0.438916992624
0.361238267435
0.272453717024
0.187304310992
0.119888691957
0.0812292193331
0.0454896286511
0.0811944117579
0.146690388604
0.230585506123
0.318303015899
0.394600650674
0.446204925415
0.464105081807
0.445110045023
0.392399192721
0.314971714207
0.226089780409
0.140984723353
0.0742228548992
0.0371864045796
0.0361051498237
0.0709790906314
0.135578449574
0.218520997118
0.305240421404
0.380505390406
0.431053733196
0.447886260468
0.427823594565
0.374056810311
0.295596666025
0.205716646737
0.119659019706
0.052000533348
0.0141332407293
