# vtk DataFile Version 2.0
Function: z = f(x,y,z)
ASCII
DATASET STRUCTURED_POINTS
DIMENSIONS 30 30 1
ORIGIN 0 0 0
SPACING 0.05 0.05 0.05
POINT_DATA 900
SCALARS density float
LOOKUP_TABLE default
0.0662787684954
0.124094210131
0.181615187198
0.237964320355
0.292210950745
0.343433632438
0.390784913997
0.433548243654
0.471178140691
0.503317604323
0.529790592587
0.550571630416
0.565738468413
0.575416545003
0.579725316144
0.57873608307
0.57244884578
0.56079230304
0.543646998894
0.520887494916
0.492436040503
0.458318110722
0.418709747535
0.373967951729
0.324638204022
0.271437056179
0.21521195964
0.156884360333
0.0973849171173
0.0375910093329
0.139867202219
0.196847056725
0.254885970093
0.312623117435
0.368502624619
0.420947502626
0.468540983365
0.510184903085
0.545208696127
0.573411039241
0.595027759862
0.610632290302
0.620986524099
0.62686841056
0.628906543506
0.627450683853
0.622500831601
0.613707225833
0.600441272729
0.581925022983
0.557396583055
0.526282520636
0.488347008287
0.44379136926
0.393286169215
0.337929571902
0.279138345411
0.218489478762
0.157538846088
0.097647272276
0.213083224871
0.270939301292
0.331207960003
0.392044930572
0.451269123596
0.506648006958
0.556195495921
0.598431814748
0.632561312839
0.658538344476
0.677010606498
0.689150438592
0.696403877233
0.700201382609
0.701680686403
0.701470009214
0.699569351043
0.69535049129
0.687675698272
0.6751145118
0.656220895402
0.629822509387
0.595271656919
0.552613983715
0.502645140376
0.446844902636
0.387199355236
0.325941030289
0.2652510172
0.206973586403
0.284817209639
0.344649900591
0.408248697263
0.473285883679
0.536955155159
0.596368436495
0.6489703263
0.692899436851
0.727235032608
0.752087145388
0.768515341428
0.778290867794
0.783543903898
0.786357420805
0.788378288066
0.79051318596
0.792762114488
0.794218393368
0.793235153053
0.787729422474
0.775571022223
0.754988705231
0.724922905262
0.685263590499
0.636931496482
0.581788010934
0.522388535242
0.461621144615
0.40229214373
0.346729248566
0.353892146786
0.416011131455
0.483249745274
0.55279682672
0.621220855841
0.684978214336
0.740944184167
0.786875765628
0.821727138236
0.845764011343
0.860457820585
0.868178720408
0.871741033158
0.873880240783
0.876752350694
0.881542502855
0.888250697266
0.895691793965
0.901709785537
0.903569190036
0.898455685116
0.883999116332
0.858728048046
0.822376770908
0.7759911054
0.721814051228
0.662970326429
0.603003549306
0.545345239809
0.492806559463
0.419142678231
0.483028566595
0.553387607537
0.626925193991
0.699584590731
0.767166636362
0.825977296197
0.873391958545
0.908239717982
0.930941961393
0.943381993816
0.948528877074
0.949881076448
0.950826584767
0.954030547307
0.960956563713
0.971604633985
0.984511158479
0.997010991917
1.00571614147
1.00712814186
0.998277931261
0.977282204637
0.943719575102
0.898760948079
0.84503093526
0.786223571332
0.726538017691
0.670031009561
0.61999715401
0.479497027152
0.543910411072
0.616150471001
0.692439154325
0.768094510546
0.838261835176
0.898677776878
0.946336111974
0.979940850102
1.00006905568
1.00901590315
1.0103493617
1.00825203956
1.00676444044
1.00906084747
1.01688331998
1.03023185798
1.04736440213
1.0651066693
1.07941815577
1.08611625333
1.08163299278
1.06367319968
1.03165980961
0.986888812931
0.932366433328
0.872356022134
0.811712283837
0.755117168934
0.706348730041
0.534048966315
0.597267810732
0.669666854587
0.746984599721
0.823913880364
0.894944448932
0.95524363744
1.00142361023
1.03206329198
1.04789542467
1.05162705212
1.04742505091
1.0401561722
1.03451343057
1.03418024703
1.04117714059
1.05550411125
1.07514064
1.09640330583
1.11459909416
1.12486125384
1.12302290827
1.10637701363
1.07419082797
1.02788542658
0.970848645135
0.907913151613
0.844589193601
0.786183936866
0.736958879571
0.582108623047
0.64225269724
0.712930494301
0.789397070524
0.865720044867
0.935733626653
0.994035831247
1.036857211
1.06265160567
1.07230743474
1.06894361145
1.05732591976
1.04300525375
1.0313271389
1.02648413407
1.03077521796
1.04420039056
1.06446067319
1.08736350697
1.10756336644
1.1195093575
1.1184356962
1.10122346931
1.06698425733
1.01726422051
0.955832806495
0.888091999926
0.820207591477
0.75811196219
0.706550055772
0.623224496356
0.678610455896
0.745883661735
0.819815724621
0.893849048237
0.961162298814
1.01578417507
1.05356361736
1.07282938051
1.07462556154
1.06248294309
1.04176621649
1.01871041876
0.999313586253
0.988277415707
0.988179345494
0.999019375612
1.01822006769
1.04107972499
1.06160031116
1.07354678919
1.07155446773
1.05209256415
1.01411698143
0.959298964751
0.891789573747
0.817560109702
0.743431906389
0.675962560122
0.620380460154
0.657173944934
0.706639339048
0.769345502891
0.839580601664
0.910161823779
0.973612292371
1.02339138951
1.05496644357
1.06654112443
1.05931520664
1.03723134225
1.00625312996
0.973299749733
0.945021748804
0.926629961766
0.920980286677
0.928072723536
0.945051374286
0.966705404332
0.986384266442
0.997168780658
0.993095348264
0.970221317226
0.927346912985
0.866268465671
0.7915186469
0.709638074606
0.628103625654
0.554098111633
0.493333367339
0.683924750314
0.727064569912
0.784798682668
0.850931808238
0.917655919761
0.976838597278
1.02136990621
1.04633556294
1.04981415242
1.03316112673
1.00073100731
0.959086300241
0.915830328429
0.878266149984
0.852113737363
0.840507448308
0.843447282817
0.857798883152
0.877842276853
0.896274405807
0.905491947122
0.898932394703
0.872241227114
0.824062992266
0.756319105227
0.673923849598
0.583987159965
0.494641456284
0.413694765418
0.347342367709
0.703575244142
0.740849719729
0.794072011902
0.856563394773
0.919890626209
0.975265743156
1.01500949438
1.0338259843
1.0296687129
1.00404880981
0.961732665856
0.909881694519
0.856783361625
0.810393236168
0.776940428469
0.759837755952
0.759085218617
0.77126999904
0.790162986901
0.807808613203
0.815919412121
0.80733397018
0.777285896547
0.724264061595
0.650314965335
0.560734503354
0.463201926884
0.366505198979
0.279077561772
0.207597741152
0.716284069133
0.748978665561
0.798974602005
0.859109707031
0.920325523233
0.973178544464
1.00942020284
1.02337299079
1.01286532337
0.979564007728
0.928647304104
0.86787553335
0.806220304227
0.752289696611
0.712821958688
0.691508367564
0.688348923237
0.699652348602
0.718680395476
0.736824983981
0.745114505355
0.735788638747
0.703669123922
0.64708915372
0.568220313093
0.472740109612
0.368897111161
0.266134823885
0.173511705191
0.0981899265135
0.722202301937
0.752246393712
0.800945348932
0.860653550618
0.921687326091
0.97394762611
1.00861656614
1.01963502663
1.00470633769
0.965652984006
0.908065095215
0.840301899547
0.7720191487
0.712477433431
0.668924139789
0.645329004561
0.641692027747
0.65404347256
0.675135952952
0.695708878164
0.706106496499
0.697969579728
0.665707998216
0.60749926727
0.52564005678
0.426189486305
0.317965440376
0.211066968234
0.115177742558
0.0379433803283
0.721420117646
0.75109524887
0.800778766969
0.862341609418
0.925474888265
0.979424011175
1.01480177697
1.0251674541
1.00809928774
0.965575440116
0.90359791026
0.831124833782
0.758496105315
0.695624826495
0.650267521237
0.626672386009
0.624839420811
0.640520429175
0.665958887187
0.691241693209
0.706028952609
0.701362529778
0.671240425682
0.613684478094
0.531116441845
0.429977048479
0.319653499176
0.210900386271
0.114026597716
0.0371611960368
0.713937516258
0.745525231034
0.798474856116
0.864173883431
0.931688209755
0.98960769966
1.02797583532
1.03997027319
1.02304417352
0.979331376058
0.915245749241
0.840344336055
0.76565117407
0.701731875803
0.656852103032
0.635538511907
0.637791102429
0.659083218446
0.691149198182
0.723423429118
0.744881873685
0.745967488897
0.720266406321
0.665644786194
0.584649468289
0.484102796134
0.373961287561
0.265635077995
0.170058270665
0.095843373639
0.699664322685
0.735093995518
0.793239102086
0.865003688773
0.938828437079
1.00264766848
1.04593554851
1.06148812163
1.04663346315
1.00366109036
0.939396741083
0.863996365696
0.789168144697
0.726130201488
0.683657335708
0.666554663191
0.674822183937
0.703654782113
0.744277658077
0.785472688431
0.815531692671
0.824298720431
0.804948033879
0.755190115718
0.677696890661
0.579672314224
0.471642220884
0.365672289164
0.273321837562
0.203686819695
0.678449460273
0.719006556018
0.783632608926
0.862748219837
0.944168854979
1.01517329274
1.06466638198
1.08506255521
1.07356480277
1.0326183195
0.969460712624
0.894846839888
0.821169024731
0.760297901432
0.721517407497
0.709911118442
0.725479034266
0.763137579454
0.8136028165
0.865004111126
0.904949139892
0.922683045054
0.91096821938
0.867359468038
0.794653800684
0.700436784817
0.595803571564
0.493475382543
0.405636751523
0.341867077668
0.65013428631
0.69627903547
0.767846265223
0.854773130863
0.944249883345
1.02289975796
1.07905828693
1.10475829077
1.09707767488
1.05861731163
0.997026677657
0.923659538076
0.851592359264
0.793348286381
0.758720394796
0.753070719706
0.776399261113
0.823343983817
0.88411181245
0.946179601852
0.996470885648
1.02363189872
1.02001316442
0.983013810407
0.915555931259
0.825606706466
0.724830603806
0.626604387987
0.543737808054
0.486293708715
0.614620469149
0.665947862634
0.744051260142
0.83838437142
0.935512232152
1.02140253453
1.08382149414
1.11442031949
1.11015183106
1.07377257875
1.01334390859
0.940818493074
0.869956941516
0.813934909959
0.783054611632
0.782956541418
0.813640699317
0.869466590447
0.940132001577
1.01246127666
1.0726938064
1.10887691828
1.11294926628
1.0821543005
1.01953920047
0.933452757661
0.836128756502
0.741599504796
0.66329996686
0.611776432947
0.571940227258
0.627287814293
0.710764928781
0.811341834923
0.91495835313
1.0069266325
1.07444357197
1.10877876807
1.10675995632
1.07129936417
1.01087020704
0.938024064819
0.867205689742
0.812243248735
0.783948092893
0.78823917678
0.825116500396
0.888661109177
0.968061652028
1.04948996203
1.11850128693
1.16254404685
1.17314502637
1.14739199805
1.08845722636
1.00507111476
0.910036764325
0.818042025957
0.743147079243
0.696381659982
0.522316201942
0.580000638101
0.667168125141
0.77230548172
0.880727312974
0.977090224912
1.04802179981
1.08441002222
1.08295754274
1.04673226632
0.984619277801
0.909769064439
0.837310521415
0.781724326531
0.754330968746
0.761327862306
0.802715007212
0.872294989217
0.958747319363
1.04759131985
1.12369809549
1.17391715902
1.18936342563
1.16696899034
1.11003120256
1.02766207775
0.933234033613
0.842090464155
0.768916764235
0.725226115198
0.466199894196
0.524340948756
0.613318577629
0.721136153924
0.832483067505
0.931360381287
1.0038263609
1.0403873789
1.03762100096
0.99875080955
0.93307375892
0.854339243702
0.778360302009
0.720270122527
0.691898332079
0.699720804593
0.743737540068
0.817472664576
0.909096551296
1.00347601154
1.0847980072
1.13931314363
1.15772446661
1.13680839362
1.07998735904
0.996754990287
0.901053021733
0.808880390465
0.735547706619
0.693051597086
0.404281176693
0.461156814595
0.55022255024
0.65899831119
0.771548272038
0.871217952604
0.943496301864
0.978508080408
0.972705768936
0.929468627483
0.858505479681
0.774164627545
0.692943252124
0.630627052985
0.599554794813
0.606480811219
0.651405102203
0.727573334155
0.822646742388
0.920839627336
1.00565480795
1.06274398222
1.0823983265
1.06123858077
1.00281226432
0.916994616567
0.818296688532
0.723372960393
0.648159257561
0.605135652471
0.337466276665
0.391837089772
0.47975152405
0.588246061519
0.700759661495
0.799982300708
0.870833611483
0.903056742424
0.89297908929
0.844135589652
0.766646936541
0.67546033935
0.587757122064
0.519975495129
0.484963361096
0.489753513257
0.534345951613
0.61170788287
0.708991404479
0.809758305992
0.896827263426
0.955251067386
0.974909024842
0.952266198224
0.890995191772
0.801352856882
0.698419561228
0.599505328082
0.521171198126
0.476380689341
0.266826970934
0.318173569223
0.404417312113
0.512111236078
0.624069085161
0.722325292998
0.791230175265
0.82014526858
0.805272883763
0.750303635918
0.665770087475
0.567218355206
0.472513906032
0.39874746128
0.359276061363
0.361410959257
0.405152154962
0.483188395503
0.582162640465
0.684984168522
0.773787512752
0.833026556386
0.852168736991
0.827523439464
0.762888352985
0.668901940936
0.561213887641
0.457789759465
0.375815812362
0.328739009861
0.193528617583
0.24216068024
0.327043410926
0.434246400571
0.545958177946
0.643557633591
0.710825766535
0.73674250141
0.717385064094
0.656599747226
0.565330982636
0.459723794474
0.358327792597
0.278886209211
0.235265222596
0.235054545407
0.278254177646
0.357274406654
0.458249054154
0.563434887939
0.654282298151
0.714646260643
0.733582343581
0.70724425433
0.639554767009
0.541533956986
0.429400825234
0.321776481212
0.236472396148
0.187418979115
0.118748226348
0.165766145989
0.25038825709
0.358200705033
0.470766803318
0.56880989939
0.635541675628
0.65956044468
0.636818347483
0.57131735421
0.474413766091
0.362851514655
0.255864352692
0.171848023291
0.125177842594
0.123721982941
0.167480444332
0.248585054426
0.352660497082
0.461311029212
0.555302898025
0.617892171991
0.637722549882
0.610792061523
0.541148565979
0.4401937506
0.324715933009
0.21399176576
0.126457935352
0.076528296405
0.0435954240413
0.0907110097104
0.176784310269
0.286918025554
0.402050253791
0.502248799333
0.570156027909
0.593988640182
0.569573692147
0.501068831512
0.400242228908
0.28443672324
0.173570210235
0.0866909438625
0.0386833781278
0.0376941450532
0.0837232446388
0.168624044862
0.277512091718
0.391339131237
0.490187267692
0.556713662178
0.579150144063
0.553339065642
0.483453370916
0.381276359225
0.264165664839
0.152053483405
0.064001716697
0.0149076648789
