# vtk DataFile Version 2.0
Function: z = f(x,y,z)
ASCII
DATASET STRUCTURED_POINTS
DIMENSIONS 30 30 1
ORIGIN 0 0 0
SPACING 0.05 0.05 0.05
POINT_DATA 900
SCALARS density float
LOOKUP_TABLE default
0.0714433478587
0.15015141309
0.228461085082
0.305185321197
0.379064994742
0.448853443582
0.513404115768
0.571747558911
0.623145769687
0.667115747031
0.703419316525
0.732022011901
0.753029025151
0.766610067086
0.77292675459
0.772075554037
0.764056465429
0.748773022388
0.726063608033
0.695758511553
0.657752540953
0.612080162504
0.558979550623
0.498933706375
0.432680633084
0.361189783139
0.285607708488
0.207181071268
0.127168998172
0.0467585318351
0.134378421001
0.212185788418
0.291426000177
0.370257940254
0.446576602471
0.518248413447
0.583356569297
0.640415319062
0.688517426852
0.727390514149
0.757353641603
0.779182629401
0.793908274683
0.802583097098
0.80605754711
0.804804830664
0.798824947761
0.787644692454
0.77041361428
0.746079193591
0.713610633245
0.672232113056
0.621624572375
0.562060389718
0.494446800977
0.42026955711
0.341445462001
0.260108089032
0.178362444382
0.0980496440735
0.196993047408
0.275372668978
0.35701637247
0.439428968478
0.519659571334
0.594687696414
0.661826287894
0.719073296249
0.76535225302
0.800601402237
0.82569703962
0.842225271808
0.852142501089
0.857384055951
0.859489220438
0.859307940067
0.856840214836
0.851236099231
0.840956309207
0.824065516276
0.79860731815
0.76299560819
0.716354090676
0.658744521578
0.591243369354
0.515852683531
0.435259519932
0.352484363181
0.270478098946
0.191735916633
0.258332431914
0.338231157098
0.423225201787
0.510165303186
0.595254696144
0.674585984789
0.744701861362
0.803083977769
0.848486632984
0.881058693582
0.902233690356
0.914408016395
0.920463679137
0.923218815908
0.924901544333
0.926738549498
0.928729831402
0.92964870496
0.927267052547
0.918766736837
0.901265750393
0.872367700124
0.830639055239
0.775930949161
0.709489082918
0.633831804601
0.552416421973
0.469150330903
0.387830296544
0.311605581689
0.3173837987
0.399068095635
0.487678949656
0.579413024583
0.669627675777
0.753528596124
0.826888225925
0.886671918519
0.931464740313
0.961626180429
0.979147004728
0.987233892754
0.989694457093
0.990229643909
0.991756404407
0.995878163244
1.00259492042
1.01030325128
1.01608620461
1.01624283426
1.00696552763
0.985047605187
0.948498301066
0.896958126144
0.831842014016
0.756184611342
0.674213477821
0.590722920566
0.510355584219
0.436914804957
0.373144397789
0.456167349479
0.547948095835
0.644029227293
0.738922219728
0.82694585478
0.903102320814
0.9638406726
1.00757674398
1.03488064661
1.04830038144
1.05185291446
1.0502714634
1.04813978327
1.04906365884
1.05502325435
1.0660185698
1.08006944096
1.09357008305
1.10193674105
1.10043619725
1.08505148564
1.05323460528
1.00441544452
0.940178169513
0.864073725486
0.781099924076
0.696937983641
0.61707642831
0.545972667645
0.424692002613
0.507987141589
0.601871312814
0.701233033337
0.799737899545
0.890817781835
0.968704616634
1.02933116014
1.07094401364
1.09432391133
1.10257608922
1.10052779976
1.09383786584
1.08797285128
1.08722737447
1.09395833919
1.10816574544
1.12749268944
1.14764455281
1.16315477171
1.16836452326
1.15844655501
1.13029563096
1.08313101689
1.01870611153
0.941088158683
0.856045221917
0.770145430835
0.689723189053
0.619889979518
0.47124683625
0.553332411416
0.64783825641
0.7489988149
0.849633803783
0.942288182213
1.02042363468
1.07945661881
1.11746450333
1.13543864497
1.13704151483
1.1279106518
1.1146304839
1.10355038383
1.09965380353
1.10567438636
1.12161213233
1.14473339806
1.17005473161
1.19122676031
1.20166505612
1.19573208013
1.16976536128
1.12277354281
1.056679256
0.976066043238
0.887472220016
0.798352827189
0.715888147857
0.645843738354
0.51221528733
0.591473425739
0.684983071558
0.786324595068
0.887471833681
0.980082835305
1.05684903249
1.11267058431
1.14545562689
1.15640613955
1.14974182842
1.13191051887
1.11042224407
1.09250918554
1.0838436288
1.08753595679
1.10358616952
1.12888388405
1.15775681484
1.18297278039
1.1970217475
1.19345589084
1.16805550425
1.11961860842
1.05023706723
0.965010721593
0.871248138972
0.777291271454
0.691166281626
0.619292799209
0.547208854999
0.622191097493
0.713256084978
0.81333011435
0.913541143534
1.00466030919
1.07860879194
1.12977045228
1.15588419378
1.15836261829
1.14198266702
1.11400245179
1.08285761092
1.05666313477
1.04178014244
1.04169575644
1.05640997677
1.08243568093
1.11341174981
1.14122319304
1.15743437231
1.1547871758
1.12850466231
1.07717422998
1.00305697523
0.911769037577
0.811389236396
0.711146435029
0.619912675548
0.544761661058
0.576035964179
0.645742062417
0.733362143227
0.83116843012
0.929443001534
1.01807008289
1.08820060286
1.13370212338
1.15214431545
1.14515040347
1.11805456372
1.07892519447
1.03712353919
1.00164739707
0.979546720812
0.974685372479
0.987063352076
1.01281679753
1.04489575614
1.07430242873
1.09167557181
1.08894678712
1.06078189839
1.0055576812
0.925704464565
0.827354686545
0.719357418465
0.611828434907
0.514485657431
0.435056862528
0.598668892003
0.66275034979
0.746577027732
0.841767075951
0.937756693402
1.02354319426
1.08950725526
1.12900013976
1.13942228621
1.12260754155
1.08444731712
1.03382029766
0.981013331777
0.935907027505
0.906240171115
0.896253364253
0.905946606921
0.931079297469
0.963912649631
0.99456605537
1.01275266607
1.00959379701
0.979198036838
0.919731538609
0.833793863887
0.728033749309
0.612070518135
0.496906856192
0.393106564528
0.309051493017
0.615192249422
0.674045079054
0.75447436642
0.847444188262
0.941544864043
1.02488679669
1.08708041101
1.1209606718
1.12375878492
1.09751921987
1.04869062307
0.986961965686
0.923545701492
0.869205247359
0.832368223135
0.817651970039
0.825056488071
0.849964436012
0.883948194015
0.916244345204
0.935640435814
0.932447494674
0.900216875361
0.836904108383
0.745277987869
0.632503549028
0.508970367055
0.386568039022
0.276706245463
0.188420909639
0.625742542957
0.680472842098
0.758610836555
0.850466529682
0.943784361459
1.02578782357
1.08531708888
1.11469082361
1.11097100107
1.07641271329
1.01802184177
0.946297644139
0.8733781793
0.81090967297
0.768008578578
0.749668976913
0.755890867974
0.781680170972
0.817920432481
0.852965426785
0.874677094971
0.872556179416
0.839596798626
0.773543860563
0.677335391923
0.558652726482
0.428655691375
0.300120794916
0.185303597128
0.0938940946564
0.630449768797
0.682717696904
0.760224557909
0.852626281781
0.94682142901
1.02914658004
1.08767165579
1.11419902393
1.10562142518
1.06440457414
0.998111587363
0.918052008931
0.837289502904
0.768353103836
0.721048098733
0.700745307956
0.707444731503
0.735775549017
0.775932473489
0.815386470365
0.841073875585
0.841685145073
0.809657162264
0.742524212573
0.643393555265
0.520462822683
0.385662093898
0.252654788472
0.134542345912
0.0416688362494
0.629391519461
0.681160265648
0.759999182312
0.85491012604
0.951945777834
1.03655580689
1.0960398822
1.12168407285
1.11021188701
1.06429966182
0.992067748895
0.905635978779
0.818993620677
0.745552517981
0.69580679128
0.675504000503
0.684644145649
0.71747966679
0.763516443336
0.809342631898
0.840968963264
0.846275606905
0.817142211189
0.750892438983
0.650802782118
0.525587171506
0.387945938157
0.252429412875
0.132984914655
0.0406105869138
0.62256779495
0.675800548327
0.757934709764
0.857318062459
0.95915740793
1.04801550413
1.11042176811
1.13714597038
1.12474238657
1.07609797633
0.999890326371
0.909049553683
0.818490532618
0.742507915407
0.692284656219
0.673945054554
0.68748911041
0.72679252429
0.780672342024
0.834833911382
0.874362358005
0.886327564914
0.862051945402
0.798648539792
0.699563072482
0.574025772953
0.435507224151
0.299444668125
0.180631303358
0.0907193466496
0.609901002744
0.666257922769
0.753347488435
0.858863409555
0.967166608161
1.06193293096
1.12892154306
1.15838591643
1.14671109408
1.09699465826
1.01847143073
0.924881814925
0.832066290355
0.755202318087
0.70616168587
0.691445432774
0.711053558799
0.758485024875
0.821868043254
0.886025152865
0.935115874205
0.955399803837
0.937642119987
0.878745240432
0.782324122135
0.658125293146
0.520389588349
0.385441161036
0.268919089178
0.183129662961
0.591261146654
0.651848330992
0.744999398552
0.857753985763
0.973627135168
1.07540778223
1.14808484012
1.18139548224
1.17155551904
1.12187315529
1.04214044785
0.946908086597
0.852942156185
0.776302926524
0.729551018943
0.719564212081
0.74634250594
0.803008121877
0.877000438565
0.952259186096
1.01201827982
1.04172702984
1.03159337931
0.978309123477
0.885658451858
0.763904191074
0.628057427946
0.495329227013
0.382204545729
0.301643747668
0.566511720159
0.631725181104
0.731333762853
0.851723028449
0.975562140947
1.08475312457
1.16351464055
1.20106756371
1.19345847194
1.14420619257
1.06366001751
0.967180923102
0.872460599144
0.796442124385
0.752374953734
0.747513605401
0.781858079386
0.84815385748
0.933151484772
1.01990788252
1.09073136091
1.13026094361
1.12814733871
1.08087171889
0.992387506243
0.873473825958
0.739912016794
0.609800054533
0.500468776119
0.425532618508
0.535568112307
0.605059353667
0.71077695341
0.838452401196
0.969908980594
1.08616180458
1.17065928245
1.21210599046
1.20637927394
1.15720858275
1.07550044388
0.977426120117
0.881602906419
0.805856690367
0.764125760452
0.764041374454
0.805603532373
0.881180976429
0.976835418131
1.07474096989
1.15628033677
1.20528225596
1.21084020049
1.16922472048
1.08455847062
0.968136874637
0.836511523243
0.708667303461
0.602780931721
0.533120918366
0.498458045968
0.571226819399
0.682053188796
0.816014570432
0.954088368389
1.0764027844
1.16563597582
1.20997622034
1.20513163072
1.15504227936
1.07117192834
0.970502126892
0.872575775112
0.796101569428
0.755706631908
0.759398959904
0.807178553415
0.891037415091
0.996348422863
1.1044028803
1.19565788732
1.25313189466
1.26536114027
1.22840555175
1.14655701632
1.0316272563
0.900938114336
0.774361388692
0.670919675286
0.605535557846
0.455373096216
0.529970942562
0.644457622454
0.783256478781
0.926499036138
1.05342658501
1.14594703082
1.19173235269
1.18632143081
1.13386496015
1.04638393781
0.941670199513
0.840192250493
0.761541596017
0.721034191734
0.727054774565
0.779603344511
0.870295164649
0.983814279331
1.10056918329
1.20009137129
1.26458900762
1.28204109516
1.24829693895
1.1678176588
1.05293127559
0.921729883898
0.794972193233
0.692526679003
0.62996999832
0.406701763908
0.481510810222
0.598039927664
0.740058385736
0.886851829548
1.01677463834
1.1109644656
1.15657699187
1.14898186479
1.09254040186
0.999830835268
0.889455287174
0.782807867969
0.700362891756
0.658125147764
0.664856112485
0.720555785918
0.816462691574
0.93657204022
1.06040951776
1.16658101379
1.23648440616
1.25754146269
1.22539086585
1.14466296803
1.02820208869
0.894870574316
0.766314045685
0.663246857685
0.601899740813
0.353037660413
0.426576155597
0.54366595949
0.68742226821
0.836284847378
0.967721164989
1.0620986226
1.10605660218
1.0947955188
1.0328873125
0.933467450555
0.815948341568
0.70264970108
0.614928652031
0.569478817231
0.575438412744
0.632807438567
0.732447678641
0.857665510154
0.987103810165
1.09844286313
1.17227026046
1.19545053486
1.16341174631
1.08095347972
0.961436353136
0.824492964992
0.692655847297
0.587485234428
0.525865930269
0.295160562653
0.36636203924
0.482946062117
0.627373754017
0.777239001074
0.909122360038
1.00262098053
1.04385794595
1.0278644388
0.959423021671
0.852226396904
0.726497259557
0.605480930318
0.511417340966
0.461688947892
0.465810706728
0.523782617475
0.6260897245
0.755349571412
0.889322226432
1.00476236887
1.08144730367
1.1056843285
1.07269088075
0.987435777931
0.863795936639
0.722174207254
0.585990033028
0.477649527823
0.41469156891
0.233992697195
0.302410238189
0.418041563054
0.562693721138
0.713114719088
0.84499820241
0.937171068785
0.97524010305
0.954067255135
0.878645710181
0.763225405596
0.628839322893
0.499658387907
0.398805341256
0.344351472912
0.346188478076
0.40431635675
0.50884341373
0.641698359046
0.779758452078
0.898852766992
0.977948322275
1.00279518052
0.968400156585
0.879901300539
0.751691827546
0.604944839925
0.463966692171
0.352009377634
0.28726584697
0.170536814018
0.236436887554
0.351381982544
0.496525074947
0.647768291926
0.779918367741
0.871031948137
0.90619951938
0.880113798836
0.797978594192
0.674601077925
0.531824518002
0.394745445404
0.28736940959
0.228456534111
0.228275253739
0.286825568475
0.393839043546
0.530555555401
0.672969554581
0.795984510105
0.877757154006
0.903480313807
0.86795018182
0.776474040682
0.643961404123
0.492355626401
0.346849973255
0.231542317523
0.165279683243
0.105805688941
0.170135144481
0.285340859056
0.43192173524
0.58493402071
0.718297538481
0.809298682359
0.842511640044
0.812459896333
0.72455788146
0.594170002973
0.443949815291
0.299919454543
0.186967279028
0.124542245876
0.12328952943
0.183209129691
0.293655872315
0.43518080017
0.582895554961
0.710778000556
0.796174582538
0.823720893357
0.78800250278
0.694495926011
0.558626975349
0.403109256987
0.254022947911
0.136311800445
0.0694769120127
0.0407541171267
0.104985906639
0.221925192767
0.371416804701
0.527671110629
0.663721022322
0.75608268165
0.788813977743
0.756269162833
0.664073289699
0.528148000959
0.371957137486
0.222448440557
0.105393077307
0.04092883845
0.0400776378974
0.10283947565
0.218192437794
0.365998733618
0.520487195986
0.654710083621
0.74520355565
0.776045969455
0.741612272257
0.647548211824
0.509795899025
0.351839191992
0.200645178954
0.0820034917206
0.0160693011032
