# vtk DataFile Version 2.0
Function: z = f(x,y,z)
ASCII
DATASET STRUCTURED_POINTS
DIMENSIONS 30 30 1
ORIGIN 0 0 0
SPACING 0.05 0.05 0.05
POINT_DATA 900
SCALARS density float
LOOKUP_TABLE default
0.0593926626777
0.0893512728515
0.119153990019
0.148336319234
0.176405558748
0.202873884247
0.227292644968
0.249282489977
0.268554635364
0.284920080712
0.298285627337
0.308637788436
0.316017726096
0.320491848893
0.322123398217
0.320950121779
0.316972019581
0.310151343909
0.300424853375
0.287726139401
0.272014039902
0.253302041679
0.231683343418
0.207346945534
0.180581631938
0.151766753565
0.121350961176
0.0898220790866
0.057672809045
0.0253676459966
0.147185577176
0.176395414468
0.206165929981
0.235776687009
0.264403987484
0.291212954864
0.315453535455
0.336544348449
0.354130388495
0.368105072697
0.378593250873
0.385898504836
0.390424189988
0.392582161844
0.392705205369
0.390978488105
0.387402010055
0.381790603672
0.373811483994
0.363052795505
0.349111182802
0.331683064075
0.310643589502
0.286099341982
0.258405326865
0.228142924958
0.196062189957
0.162997998403
0.129774048364
0.0971107765459
0.234536794822
0.265028144377
0.296796743379
0.328866213365
0.360081859945
0.389261754351
0.415354439957
0.437576506079
0.455506725929
0.469120934128
0.478762029001
0.48505066097
0.488752378759
0.490624484819
0.491269307689
0.491019434745
0.489874865986
0.487503014037
0.483301550358
0.476513172499
0.466372331738
0.45225837765
0.433828411911
0.411106599899
0.384514168404
0.354834528109
0.32311913564
0.290549919765
0.258281574873
0.22729047943
0.320130246605
0.353208225247
0.388280024565
0.424113324336
0.459222433846
0.492078372103
0.52132827955
0.545986715627
0.565566232108
0.58012508113
0.590224209524
0.596801336327
0.600984203579
0.603875560669
0.60634727971
0.608879367909
0.611471825268
0.613644644579
0.614525953727
0.613013003324
0.607978051329
0.598483378707
0.583968038626
0.564373778949
0.540188047902
0.512396286044
0.482351352934
0.451582229564
0.421574606645
0.393560804403
0.402569944235
0.438601845882
0.477344139432
0.517308562903
0.55667842926
0.593577705286
0.62635212849
0.653814228439
0.675410335466
0.691281119228
0.702205575061
0.709438490614
0.714469801245
0.718747703281
0.723413612409
0.72909495567
0.735791733064
0.74287651755
0.749207893441
0.75333766441
0.753775895099
0.749267797859
0.739034377354
0.722934963927
0.701523227246
0.675986637742
0.647979457906
0.619377720958
0.59199811393
0.567328898804
0.480473718821
0.518843522749
0.560640289808
0.604119816254
0.647134418735
0.687461011805
0.723143930042
0.752793673138
0.775790349988
0.792357047765
0.803490810313
0.810763493892
0.816027227178
0.821075653436
0.827319731928
0.835534309526
0.84571938623
0.857100115168
0.868265537078
0.877422008695
0.882717401343
0.882579858762
0.876012337108
0.862791749208
0.843537986167
0.819640548293
0.793055101008
0.766004729758
0.740637117895
0.718696469163
0.552570393204
0.591808103715
0.635189348584
0.680713982308
0.725903325214
0.76818723963
0.805308657202
0.835676047748
0.858603298721
0.874395914816
0.884268988381
0.890111444287
0.894137604531
0.898486559313
0.90483881147
0.914116627707
0.926320008023
0.940526685715
0.955056157945
0.967769334513
0.976451893422
0.979214909801
0.974843291301
0.963031533229
0.944465748131
0.920737466188
0.894103755756
0.867134754505
0.84230914211
0.821627064073
0.617785139736
0.655848343153
0.698771652156
0.744298979483
0.789620649138
0.831819471224
0.868336974455
0.897379598773
0.918195010196
0.931171130932
0.937741101837
0.940110916395
0.94085708992
0.94246415955
0.946882171697
0.955180812896
0.967360083149
0.982350295919
0.998201404793
1.01242887263
1.02245618413
1.02607734579
1.02185921677
1.00941387485
0.989493654018
0.963892114332
0.935167727076
0.906237682149
0.879911655545
0.858445734527
0.675299737337
0.709958392574
0.750193724624
0.793493704465
0.836717659782
0.876601348451
0.910284896254
0.935772713258
0.952246244042
0.960175828333
0.961212655491
0.957879787613
0.953115933332
0.949751076722
0.950004807772
0.955094232847
0.965019351948
0.978563058709
0.99350576314
1.00701748117
1.01615950416
1.01840877002
1.01211408939
0.996805122534
0.973300424882
0.943595586364
0.910550481198
0.877429351507
0.847372869608
0.822893064521
0.724578684831
0.753836267101
0.789387097412
0.828463204983
0.867592921175
0.903164951641
0.932018019229
0.951954504134
0.962089629493
0.962976152552
0.956483311177
0.945451236077
0.933180829205
0.92284752157
0.916940446735
0.9168241309
0.922498574065
0.93259925003
0.944637025232
0.955436468662
0.961696678366
0.960577523637
0.950209766609
0.930040650033
0.900954950775
0.86515028864
0.825787940777
0.786479201536
0.750695739556
0.721205525615
0.765357919273
0.787835707891
0.817323315776
0.850796830389
0.884453586771
0.914335238348
0.936979105035
0.949985537154
0.952403536401
0.944868277542
0.929467046949
0.909357043941
0.88820136379
0.869520884444
0.856074283039
0.849373505608
0.849418552149
0.854697476632
0.862451601919
0.869160050064
0.871159725794
0.865293429789
0.849473875678
0.823065888696
0.787020467145
0.743737260706
0.69667894946
0.649803879984
0.606914717235
0.571035373754
0.797599228062
0.812816863408
0.835760889249
0.863151451286
0.890854888239
0.914565801307
0.930520107475
0.936116127189
0.930336640707
0.913899240311
0.88910926088
0.859440970346
0.828919657298
0.801411646621
0.779945159028
0.766179560381
0.76011485068
0.760091664063
0.763081779816
0.765218873057
0.762477655194
0.751383858295
0.729632147484
0.696504930476
0.653019427013
0.601777316651
0.546542682404
0.491620923073
0.441145699938
0.398396867298
0.821419237103
0.829922573962
0.846868872543
0.868722336788
0.891018309097
0.909104338441
0.918914938874
0.917646400967
0.904215283539
0.879421596391
0.845788722906
0.807107999629
0.767766908469
0.731977221246
0.703036702248
0.68275213717
0.671123526011
0.666344083078
0.665116044082
0.663227637202
0.656291380531
0.640515937522
0.613377924794
0.574077332545
0.523697601955
0.465042442455
0.40217733999
0.339754745588
0.282239316851
0.233166849836
0.837006104035
0.840319763511
0.852792955938
0.870633943497
0.889047072266
0.903032838991
0.908224354795
0.901615880373
0.882057753104
0.85043240031
0.809481253877
0.763312718963
0.716676470796
0.674129728132
0.639239798835
0.613960888431
0.59829299692
0.590281918776
0.586360346136
0.581971060242
0.572364385867
0.553431917855
0.522432224315
0.47848287793
0.422733541318
0.358189953785
0.289219004208
0.220820195842
0.157789182608
0.103917702323
0.844539012792
0.844951322788
0.855239736961
0.871356575734
0.888175188865
0.900349020873
0.903209779948
0.893549696912
0.870152887705
0.833984197164
0.788003105684
0.736635087034
0.684992009761
0.637976539557
0.599425527863
0.571440600034
0.554021756072
0.545067370618
0.540740592235
0.536138755228
0.526149991051
0.506348825935
0.473775779485
0.427466006865
0.368635392133
0.300491704468
0.22770323568
0.15561654125
0.0893582714198
0.0329761057668
0.844124915226
0.844341893166
0.85515154651
0.872250253923
0.89018036884
0.903248283555
0.906484303326
0.8964786291
0.871949155378
0.833943144516
0.785638125414
0.731776640453
0.677832751498
0.62905457118
0.589548494512
0.561563566683
0.545099787694
0.537908112356
0.535882145654
0.533773774958
0.526108938403
0.508145093608
0.476704711673
0.430740530243
0.371534654815
0.302496884442
0.228596913869
0.155528350799
0.0887488417976
0.0325620082007
0.835763811336
0.838491474645
0.852528384585
0.873314978061
0.895062612189
0.911730627036
0.918047924928
0.910402676937
0.887446556125
0.850309242367
0.802386313067
0.748737379219
0.695198696007
0.647363822998
0.609608698782
0.584329788378
0.571527091787
0.568804143988
0.571785006392
0.574876119432
0.572241227924
0.558820720875
0.53121902088
0.488306448063
0.431431329363
0.364205493709
0.291900038773
0.220555624489
0.155960893741
0.102675409625
0.819348749273
0.826875425851
0.846427920288
0.873190727729
0.901044208969
0.923600651849
0.935287555762
0.932291061908
0.913196621907
0.879216333152
0.833963821556
0.782815766723
0.731970617154
0.687367379357
0.653651535492
0.633366970414
0.626513684122
0.630547791764
0.640823811175
0.651402735852
0.656086117292
0.64949727589
0.628022585735
0.590449949433
0.538193915363
0.475068342327
0.406645730931
0.339313793333
0.27919216874
0.231096362005
0.794700545099
0.808550856052
0.835143556092
0.869407198603
0.904891148061
0.934860640079
0.953441771119
0.956618652506
0.942910514422
0.913611871778
0.87255439899
0.825431844277
0.778804849458
0.738957867976
0.710805925569
0.697040326922
0.697661072035
0.709976856223
0.729072653747
0.748664011167
0.76219028666
0.763957732011
0.750134672801
0.71942659412
0.673314265785
0.615813576473
0.552798429721
0.491003589916
0.436879692582
0.395498184335
0.761631041178
0.78235084129
0.816529601717
0.858839934083
0.902500206542
0.940428602482
0.966449815435
0.976345926847
0.968569945464
0.944498803713
0.908182224519
0.865631024709
0.823768039424
0.789223169043
0.767180982878
0.760480205447
0.769120836748
0.790264152266
0.818725582687
0.847875227633
0.870790251965
0.881459838852
0.875834265372
0.852536599096
0.81311383128
0.761783880476
0.704722053154
0.649010165924
0.601429850635
0.567308495659
0.720023611604
0.747132541256
0.788417002451
0.838293665053
0.889649900895
0.935056841139
0.968037776384
0.984172758204
0.981848573903
0.962524573427
0.930468528207
0.892008323683
0.854428988313
0.824705869414
0.808293079872
0.808176764037
0.824356921909
0.853847409138
0.891194112838
0.929421685692
0.961245099242
0.980336468047
0.982428020678
0.966060407188
0.932846840273
0.887207268359
0.835618400847
0.785509106575
0.74399201371
0.716650452388
0.669916468978
0.702035807485
0.74904724876
0.805111520912
0.862784999451
0.914291763313
0.952853700164
0.973848831704
0.975597723799
0.959642143913
0.930467911981
0.894719982056
0.860045575915
0.833765487811
0.821603374206
0.826692799281
0.849033763037
0.885492701291
0.930345957583
0.976272737659
1.01562581974
1.04176024978
1.05019020783
1.03937392644
1.01099083974
0.969662926032
0.922168297645
0.876282875644
0.839450284518
0.817509796162
0.611573676244
0.646706898819
0.697448795391
0.757704152306
0.819698348755
0.875308411448
0.91745482512
0.941313581595
0.9451390253
0.930555341217
0.902266397787
0.867234217675
0.833468215977
0.808634633882
0.798726671428
0.807025312628
0.833530557481
0.874961421975
0.925324706073
0.976954168584
1.02184039441
1.0530213609
1.06579319959
1.05853172552
1.03298259424
0.993969813949
0.948572899899
0.904914825383
0.870770211211
0.852234271036
0.54553073458
0.581447800136
0.633690110916
0.695906511508
0.75999138478
0.817474705218
0.860975554623
0.885467894946
0.889139849173
0.873698019806
0.844064323791
0.807517852405
0.772430214062
0.74681309689
0.7369292445
0.746207060736
0.7746465456
0.818819295246
0.872462566063
0.927564669922
0.975753998412
1.00975146025
1.0246351385
1.01869843065
0.993753213719
0.954825525754
0.909296284956
0.865635516838
0.831948838531
0.814587405449
0.472605865065
0.507264359926
0.558964671238
0.62109970183
0.68523283825
0.742547002757
0.785359874219
0.808443384713
0.809919435787
0.79157704746
0.758556185183
0.718453008847
0.680001320184
0.651558254257
0.639656098255
0.647870675853
0.676201987051
0.721074208174
0.775955052033
0.832487383565
0.881937401038
0.916708944561
0.931662048683
0.925007693385
0.898623977118
0.857738967808
0.810034986584
0.764329111188
0.729057955072
0.710828615407
0.393873895346
0.425803823814
0.475492139961
0.536075804855
0.598787208724
0.654462221601
0.695117119422
0.71532180439
0.713131956612
0.690419013627
0.652540989391
0.607411112406
0.564125377724
0.531386367346
0.515995912034
0.521677255295
0.548430397129
0.59253209403
0.647180515233
0.70367307874
0.752913789498
0.786989419006
0.800541953305
0.791699954859
0.76240774356
0.718095417206
0.666746699859
0.617525721486
0.579200091862
0.558632849916
0.310606002585
0.339191343935
0.386251644192
0.444667922664
0.505341573259
0.558761413781
0.596642317237
0.613352155954
0.606880388602
0.579180870233
0.535829663314
0.485057064957
0.436321263533
0.398670287979
0.379175512632
0.381707600832
0.406266552578
0.448981704532
0.502781682357
0.558618457113
0.607033840433
0.639797535201
0.651333478953
0.639687816636
0.60687108958
0.558515425457
0.502905951263
0.44955384919
0.407557725333
0.384036560383
0.22418435567
0.24979240382
0.294591982103
0.35120816807
0.410211359307
0.461743321392
0.4972175244
0.510799810783
0.500413417771
0.468094617937
0.41963752225
0.363589496438
0.309770922187
0.267575275374
0.244343473909
0.244093600964
0.26682565654
0.308521557464
0.361840385826
0.417388665749
0.465346015546
0.497165069491
0.507051716614
0.492969684342
0.456995735445
0.404964027471
0.345461090345
0.288345158489
0.243045834316
0.216938040277
0.136004942892
0.159940814667
0.203784787803
0.259905998091
0.318543846795
0.369493047268
0.403865666654
0.415625517529
0.402629615684
0.36699665121
0.314738783583
0.25472044714
0.19712421689
0.151689015643
0.126025304886
0.124298587623
0.146508863853
0.188490630574
0.242633426298
0.299198328215
0.348002761316
0.380182291263
0.389724758582
0.374511473181
0.336685419269
0.282282784269
0.220191501039
0.160616856225
0.113319448562
0.0859301422613
0.0473838332608
0.0716778138055
0.116596466939
0.174252986692
0.234555778008
0.286952502014
0.322253822922
0.334221523433
0.320646397899
0.28372955393
0.229701199506
0.167742837578
0.108399236472
0.0617547659359
0.0356894310315
0.0345161545942
0.0582349366241
0.102532854286
0.159529902517
0.219141711571
0.27082351312
0.305393804215
0.316622376874
0.302308123488
0.264660249706
0.209916972825
0.147267628634
0.0872645560068
0.0399993499989
0.0133588165798
