# vtk DataFile Version 2.0
Function: z = f(x,y,z)
ASCII
DATASET STRUCTURED_POINTS
DIMENSIONS 30 30 1
ORIGIN 0 0 0
SPACING 0.05 0.05 0.05
POINT_DATA 900
SCALARS density float
LOOKUP_TABLE default
0.0697218214043
0.14146567877
0.212845785787
0.282778320916
0.350113646743
0.413713506534
0.472531048511
0.525681120492
0.572489893355
0.612516366129
0.645543075213
0.671538551406
0.690598839572
0.702878893059
0.708526275108
0.707629063715
0.700187258879
0.686112782606
0.665258071653
0.637468172674
0.602647040803
0.560826145243
0.512222949594
0.457278454826
0.396666490063
0.331272207486
0.262142458872
0.190415500957
0.117240971154
0.0437026910011
0.136208014741
0.207072877854
0.279245990149
0.351046332648
0.420551943187
0.485814776507
0.545084707319
0.597005180403
0.640747849944
0.676064022513
0.703245014356
0.722999183035
0.736267691155
0.744011534919
0.747007212575
0.745686781727
0.740050242374
0.729665536914
0.713756167097
0.691361136722
0.661539283182
0.623582248916
0.577198717679
0.522637382899
0.46072659039
0.392822895374
0.320676423138
0.246235218942
0.171421244951
0.097915520141
0.202356439896
0.273894879749
0.348413568314
0.423634289176
0.496862755421
0.565341133262
0.626616023903
0.678859469082
0.721088606293
0.75324704965
0.776134895246
0.791200327402
0.80022962647
0.804989831503
0.80688637576
0.806695296449
0.804416593572
0.799274229917
0.789862772228
0.774415181451
0.751145177234
0.718604575256
0.675993279424
0.623367675623
0.561710626361
0.4928500899
0.419239465033
0.343636585551
0.268735738364
0.19681513989
0.267160691155
0.340370738262
0.418233033612
0.49787216335
0.575821515815
0.648513468691
0.712791349675
0.766355797463
0.808069432859
0.838068177518
0.85766090738
0.869035633528
0.874823754057
0.877598350874
0.879393792244
0.881330094985
0.883407259097
0.884505267763
0.882589752716
0.87508763205
0.85936750767
0.833241368493
0.79540033858
0.745708496274
0.685303220772
0.616483873379
0.542407126396
0.46664060214
0.392650912273
0.323313470648
0.329553248062
0.404715774242
0.486202548195
0.570540958628
0.653492069132
0.730678468861
0.798240212006
0.853406534222
0.89488553962
0.9230054574
0.939583943347
0.947548835306
0.950376649115
0.951446509534
0.953421719836
0.957766276447
0.964480179368
0.972099432172
0.977960731585
0.978684952849
0.970795580125
0.951364775568
0.918574883393
0.872097674399
0.813225044477
0.74472775797
0.67046576069
0.594816463479
0.522018802749
0.455545389792
0.388477157937
0.465121088517
0.549761266402
0.638327882859
0.725809676729
0.807019448641
0.877393979275
0.933691101248
0.974464401978
1.00023441821
1.01332758557
1.01741156867
1.01680800108
1.01570205043
1.017385955
1.02366769081
1.03454725786
1.04821668013
1.06138371934
1.06986320786
1.06933351212
1.05612696751
1.0279171384
0.984183488049
0.926372429035
0.857726128744
0.782807806495
0.706804661658
0.634727955394
0.570647496433
0.442960344126
0.51996156475
0.60663103221
0.698301740333
0.789190103212
0.873299132949
0.945362336715
1.00166614409
1.04060962579
1.06290562611
1.07138936053
1.07046832041
1.06530925708
1.060903381
1.06117186547
1.06826666612
1.08218778296
1.10078326034
1.12013192497
1.13524256639
1.14094843328
1.13284203426
1.10808815386
1.06597394779
1.00810034533
0.938180916898
0.861482155322
0.784001048502
0.711521182347
0.648709563026
0.492180879605
0.567977544521
0.655114455802
0.74832740984
0.841060495977
0.926506937786
0.998696968932
1.05344561595
1.08899743288
1.10625757154
1.10857002726
1.10108211817
1.08980571333
1.08053806608
1.0778292847
1.08417530444
1.0995761253
1.12153581204
1.14550425635
1.16568420493
1.17606378869
1.17149568951
1.14863591207
1.10657930453
1.04708131286
0.974326910537
0.894285863882
0.813764949326
0.739320077527
0.676215452093
0.535513065903
0.608399849573
0.694298879139
0.787348753553
0.88022123741
0.965299765754
1.03591129874
1.08739945987
1.11785428648
1.12837323795
1.12280908943
1.10704898583
1.08794991396
1.07211516999
1.06472379722
1.06861571052
1.08379090987
1.10740948043
1.13429237888
1.15783630907
1.17118428417
1.16844915929
1.14577815927
1.10207382472
1.03924611832
0.961951416561
0.87686275929
0.791596711461
0.713481508481
0.648378551397
0.572547402118
0.640997550294
0.724131943897
0.81549198444
0.906977111768
0.9901609724
1.05766725298
1.10436817397
1.12819925602
1.13045026604
1.11548275904
1.08992370669
1.06147521353
1.0375466186
1.02394590019
1.02385695279
1.03727977639
1.06103047652
1.08930107487
1.11468223241
1.1294718446
1.12704293978
1.10303396293
1.05615514713
0.988470971738
0.9051092163
0.813446194165
0.721908258815
0.638595970406
0.569967927423
0.603081957764
0.666041154627
0.745356596448
0.833972487301
0.923015942282
1.00325081938
1.06659753174
1.10745689677
1.12360991844
1.11653867119
1.0911134899
1.05470117297
1.0158489427
0.982772180985
0.96190780113
0.956783677211
0.967399809229
0.990228323113
1.01883230554
1.04499637463
1.06017330809
1.0569963075
1.030595038
0.97948742513
0.905892464934
0.815409339997
0.716117637179
0.617253498489
0.527689808832
0.454482364132
0.62708751144
0.684188423164
0.759317579377
0.844821986714
0.931056435522
1.00797499526
1.06679480557
1.10144528082
1.10955290828
1.09279206994
1.05654188052
1.00890896519
0.959285663994
0.916693401665
0.888198026531
0.877671392271
0.885113498886
0.906652492697
0.935222525372
0.961802172183
0.976999093086
0.972706662906
0.94354576693
0.887842023162
0.807968944333
0.709997116072
0.602709398745
0.496151722889
0.399969298158
0.321815117914
0.644653247662
0.696313292612
0.767673581581
0.850483923765
0.934326784765
1.00834644551
1.06305677214
1.09191577597
1.09239542758
1.06636241652
1.01970463733
0.961268541964
0.901291588203
0.849601243628
0.81389229158
0.798380565344
0.80306606492
0.823732957021
0.85268645831
0.880099101204
0.895733427916
0.890742986509
0.859239882423
0.799357426121
0.713623647025
0.608580533803
0.493714220331
0.379880425674
0.277496684233
0.19481318681
0.655923051682
0.703308116585
0.772065425038
0.853347588799
0.935964748717
1.0082513972
1.06001812687
1.084251546
1.0782691085
1.04412981144
0.988230329218
0.920156940543
0.850992220942
0.79136968085
0.749613038615
0.73028210713
0.733376886395
0.754337563516
0.784840420146
0.81425194585
0.831489565099
0.826966999193
0.794287573725
0.731392291615
0.64096369898
0.530015187526
0.408736164637
0.288792137906
0.181372966483
0.0953260386087
0.66103394651
0.705893929173
0.773798154917
0.85530203806
0.938443394704
1.01074692873
1.06131995924
1.0826776915
1.07198306268
1.03148737743
0.96809608998
0.892135305803
0.81553271817
0.749727880368
0.703673445752
0.682273206824
0.685527163585
0.708531523531
0.74233363331
0.775493939632
0.796084749223
0.793779956625
0.761674107581
0.697515897472
0.604142389103
0.489038377223
0.363096542724
0.238792181726
0.128087478127
0.0404270176091
0.660067718856
0.704471926722
0.773592377198
0.857387287166
0.943122147977
1.01751187499
1.06896051379
1.0895118666
1.07617435392
1.03139158792
0.962577802684
0.880798930447
0.798827782223
0.728909954153
0.680627034599
0.659226795671
0.66470923737
0.691826587585
0.730997257953
0.769975652335
0.795988959712
0.797971247863
0.768508282687
0.70515645202
0.61090733536
0.493717130497
0.36518179183
0.238586404007
0.126665475675
0.0394607899548
0.653024368719
0.699042109229
0.771448091881
0.859603336116
0.950001008538
1.02854623597
1.08293979051
1.10475407132
1.09084298222
1.0438424429
0.971675467328
0.886147814474
0.800877413102
0.728915902206
0.680473805157
0.661142873671
0.67092310775
0.704222755675
0.750831294077
0.79769708396
0.831202196565
0.839540872908
0.814790099042
0.754313955259
0.661258537751
0.544051447347
0.414991911954
0.288174804749
0.177106959127
0.0924273556461
0.639822109391
0.689203280352
0.766644692985
0.860910169295
0.957720551134
1.0421711768
1.10125954488
1.1260866515
1.11335188377
1.06588346896
0.992113200847
0.904586665182
0.817766908469
0.745511612554
0.698660235816
0.683148509579
0.698976433845
0.740208277288
0.796004581528
0.852507664721
0.89525448036
0.911699442702
0.893410757951
0.837560198861
0.74744837831
0.631974300172
0.50414046586
0.378851537079
0.270386671973
0.189982048539
0.62032391786
0.674234406
0.757877135344
0.859418730454
0.963807708438
1.05532961906
1.12027868741
1.14928450656
1.13889194695
1.09212154336
1.01791386944
0.929554337694
0.842351112367
0.77096791816
0.726873148461
0.716346514202
0.739388015382
0.789717941069
0.855867897877
0.923174161106
0.976328566508
1.00204570158
0.991384992669
0.941325904998
0.855323568133
0.742748388988
0.617306142486
0.494711278856
0.390015280994
0.315051524335
0.594385908876
0.653243132559
0.743504596977
0.852739729253
0.965124721746
1.0641353357
1.13536252267
1.16896447273
1.16133153959
1.11567656559
1.04144890423
0.95267379476
0.865504519184
0.79541084505
0.754490100754
0.749365976836
0.780038473295
0.839883899592
0.916804927331
0.995331788961
1.05931120249
1.09471792865
1.09210261395
1.04825241606
0.966776981248
0.857518119461
0.734884879131
0.615401499018
0.514891786764
0.445786315244
0.561918897921
0.625355523322
0.721868388987
0.838429724604
0.95844339778
1.06457538123
1.14171335301
1.17954410014
1.17430345965
1.12939658142
1.05478159878
0.965223577769
0.877720918118
0.808549430231
0.770435377512
0.770346430109
0.808282588021
0.877276181101
0.964600945946
1.05398107215
1.12841815998
1.1731471434
1.17820988909
1.14020124716
1.06288538057
0.956575502312
0.836383934329
0.719644703906
0.622953943434
0.559339423227
0.522952106398
0.589913817697
0.691623768791
0.814456991929
0.941045029969
1.0532440671
1.13523850787
1.17624373625
1.17234107258
1.1271279743
1.05107135458
0.959676106201
0.870785746656
0.801482129197
0.765120452236
0.769012365529
0.813157869075
0.89024531312
0.986919499251
1.08609857421
1.16993902052
1.22293594539
1.23462243564
1.20140103385
1.12719041966
1.02277520912
0.903970997666
0.788921601114
0.694995476605
0.635817591892
0.477687464792
0.546647507741
0.652027790017
0.779606146427
0.911241795083
1.02798113164
1.11330528715
1.15595824254
1.15186680146
1.10482072887
1.02579571781
0.931036487822
0.839231674134
0.768269172855
0.732133117405
0.738479137146
0.787307232078
0.870961772839
0.975458626008
1.08290989548
1.17462694602
1.23436505809
1.25114853865
1.22118762275
1.14855550672
1.04450820964
0.925564600469
0.810678283541
0.717990040747
0.661722037279
0.426534474004
0.495787523067
0.603132810986
0.733750975132
0.868728908867
0.988303219321
1.07525176403
1.11784712088
1.11186157685
1.06127720442
0.977578476485
0.87774993935
0.781325345983
0.706998635346
0.669382875869
0.676477676521
0.728283037301
0.816799349241
0.927413543912
1.04143168235
1.13932001159
1.20409398532
1.22426913066
1.19586337511
1.1231044317
1.01771972255
0.896931390121
0.780502827278
0.687347140663
0.632283692904
0.370118832506
0.43810304193
0.54585148974
0.67794761587
0.814705988931
0.935553427527
1.02256451569
1.06354042826
1.05409893551
0.998414417494
0.90848012693
0.802020436894
0.699414218095
0.620161452349
0.579504143092
0.585785878902
0.639006659779
0.730822897146
0.845992587565
0.965015749222
1.06751351141
1.13576150104
1.15776646541
1.12935402446
1.05490640792
0.946622440946
0.822427539505
0.702894884996
0.607709908806
0.552289171003
0.309262467324
0.37485372275
0.481881216095
0.614331189851
0.751745887881
0.872742340262
0.958691857514
0.996924211441
0.982902655629
0.920993877665
0.823699910116
0.709484952822
0.599572994233
0.51427005902
0.469447085627
0.473791642238
0.527303728854
0.62129577729
0.739896849101
0.862800919619
0.96878400039
1.03938189158
1.06209256061
1.03254931991
0.955288915878
0.84298157672
0.714255991912
0.590495131379
0.492156751257
0.435254609053
0.244937455108
0.307664681867
0.413500146074
0.545832892784
0.683432841112
0.804107232606
0.888524104279
0.923541824893
0.904469131344
0.83586501876
0.730740299556
0.608299000331
0.490610227282
0.398786047931
0.349326335729
0.35126263847
0.404594956154
0.500291740988
0.621853119519
0.748167024226
0.857164348912
0.929641066979
0.95258636601
0.921441250878
0.840896984687
0.724095198676
0.59036785583
0.461907714602
0.359944855877
0.3010902346
0.17820074854
0.23834481845
0.343269125338
0.475765516821
0.613831587266
0.734464789691
0.817629887603
0.849713846723
0.825870887256
0.75085231187
0.638177712829
0.507790943493
0.382606227802
0.28454167613
0.230726096939
0.230535017628
0.283968438199
0.381650831249
0.506453388319
0.636457999034
0.748750439454
0.823386856218
0.846847657065
0.814381539324
0.730834282791
0.609818921744
0.471370692679
0.338492142574
0.233185677065
0.172659448534
0.110119868077
0.16867881165
0.273689991734
0.407348058505
0.54687828158
0.668468325451
0.751379680115
0.781527908256
0.753912713383
0.67347770571
0.554251257346
0.416917048412
0.285234420593
0.181927527116
0.124754111449
0.1234336806
0.177966234571
0.278632266352
0.407674032474
0.542367379711
0.658952966379
0.736747112356
0.761721445532
0.728932355695
0.643380139333
0.519149233766
0.376978148995
0.240679220527
0.133027178747
0.0718273734768
0.0417012194316
0.100227607663
0.206878231934
0.343250544985
0.485797491683
0.609896947992
0.694107130403
0.723872198556
0.694037339271
0.609738470304
0.485512743609
0.34278366607
0.206155697116
0.0991590328258
0.0401803516759
0.0392831402827
0.0964673986461
0.20166964015
0.336503186318
0.47743784107
0.599869144978
0.682373591159
0.710414027658
0.678854536718
0.592849931521
0.466956052425
0.322614682941
0.184447947104
0.0760029000461
0.0156820890284
