# vtk DataFile Version 2.0
Function: z = f(x,y,z)
ASCII
DATASET STRUCTURED_POINTS
DIMENSIONS 30 30 1
ORIGIN 0 0 0
SPACING 0.05 0.05 0.05
POINT_DATA 900
SCALARS density float
LOOKUP_TABLE default
0.0921016653118
0.254380224928
0.415844676619
0.574069324562
0.726481170733
0.870532688157
1.00388092285
1.12454481994
1.23101628567
1.32230831786
1.39793421228
1.45782353784
1.5021912521
1.53138415542
1.54573250837
1.54543343791
1.53048694402
1.50069589978
1.45573004459
1.3952425781
1.31901854276
1.22712836963
1.12005876298
0.998796724959
0.864850349334
0.72020069098
0.567190703881
0.408367915009
0.246305322389
0.0834286218441
0.11242329613
0.27354071519
0.437586120513
0.600797231531
0.758872513878
0.907452056733
1.04261891302
1.16133698297
1.26175234975
1.34330841378
1.40665716857
1.4533839858
1.48559527702
1.50544184325
1.51466156152
1.51422141791
1.5041214124
1.48339455894
1.45030298049
1.40269587603
1.338466834
1.25603048274
1.15473482873
1.03513647155
0.899089328028
0.74962949794
0.590673928361
0.426582530111
0.261656837555
0.0996591312636
0.132632337555
0.293106139722
0.460250022341
0.628965120099
0.793221362287
0.946846454237
1.08434945579
1.20163922226
1.29651601375
1.36885363328
1.42044277211
1.45452460467
1.47509699651
1.48611474932
1.49072335658
1.49065966348
1.48592367001
1.47477853099
1.45407875295
1.41986953418
1.36815300914
1.2956880034
1.2006838257
1.08326667303
0.94563628527
0.791883807113
0.627500178718
0.458657694753
0.291386425927
0.130785237553
0.152393321014
0.312556183128
0.48313121988
0.657682981216
0.828452860083
0.987456177965
1.12762800161
1.24382214144
1.33349303449
1.39694488636
1.43710708607
1.4588766108
1.46814278009
1.47066439632
1.4709945694
1.47164000365
1.47260069906
1.47136995133
1.46339465053
1.44291599429
1.40404466308
1.3418836797
1.25350365515
1.13860038381
0.999719428659
0.842006979271
0.672527968898
0.499267076056
0.329982907798
0.171110914178
0.171350406356
0.331295952355
0.505395767181
0.685877816034
0.86325495552
1.02773012327
1.17066439296
1.28585653009
1.37041514862
1.42507485677
1.4539037413
1.46345458214
1.46150815283
1.45562725641
1.45177261926
1.4532208048
1.45997181303
1.46874908052
1.4735918809
1.46693741113
1.44100489768
1.3892415606
1.30757931314
1.19528354709
1.05524564848
0.893666851799
0.719186083388
0.541600405609
0.370396961858
0.213347786933
0.18915127602
0.348722481015
0.526190049024
0.712445360503
0.896272735716
1.06606272845
1.21160241928
1.32563552882
1.40492484796
1.4506353875
1.46797393195
1.46514906401
1.45183301121
1.43739257726
1.42919610497
1.43129001691
1.44367431307
1.46230257089
1.47980644757
1.48681913938
1.4736684188
1.43214570314
1.35704420787
1.2471989222
1.10584705525
0.940244886388
0.760605335048
0.578537847442
0.405258103307
0.249874722186
0.205471904456
0.36429406366
0.544754680066
0.736408549386
0.926311455542
1.10104156847
1.24881197566
1.36131135282
1.43495666778
1.47134333392
1.47681683352
1.46124155201
1.43618117093
1.41280649466
1.39989348246
1.40225841601
1.41990129531
1.44800583868
1.47779608686
1.49810123547
1.49735760298
1.46570080394
1.39678535608
1.28901584602
1.14597530593
0.975975060104
0.790802021049
0.60387801883
0.428147269526
0.274054977423
0.220038315989
0.377590814151
0.560523863703
0.757055675614
0.952513497461
1.13166311534
1.28114362363
1.39158865317
1.45906934869
1.48561152618
1.47869936567
1.44985305534
1.41252773073
1.37969819689
1.36154802953
1.36366336944
1.38604421663
1.4231044303
1.46466043474
1.49773742489
1.50888026523
1.48656876757
1.42331875188
1.31710440217
1.1718545737
0.996935635648
0.805708493628
0.613407361545
0.43470499182
0.281383173485
0.232641944461
0.388356339736
0.573193380589
0.774034693244
0.974478988936
1.15747966991
1.30810183747
1.41592407754
1.47667171177
1.49280095878
1.47293469631
1.43024891531
1.38009020533
1.33723737207
1.3132816077
1.31457891213
1.34112928537
1.38657672749
1.43933004633
1.48461043618
1.50707130752
1.49353666938
1.435383644
1.3301560128
1.1821284541
1.00172238199
0.803872695156
0.605625991363
0.423383559372
0.270263772959
0.243146289572
0.396513663878
0.582745777948
0.787387673265
0.99230952472
1.17865235071
1.32990725945
1.43459779196
1.48810344684
1.49331084526
1.45998156275
1.40294739302
1.33944637957
1.28606132882
1.25579104935
1.25576140022
1.28597238141
1.3392981339
1.40273984907
1.45971472054
1.49298470478
1.48771800809
1.43415305495
1.32940322417
1.17808901716
0.991686892897
0.786705743173
0.582004549587
0.395713137248
0.242286464674
0.251484041161
0.40215295589
0.589428704572
0.797519743944
1.00656771256
1.19590124496
1.34743745627
1.44864484262
1.49455707953
1.48849119077
1.44134744962
1.36961345252
1.29241869702
1.22814999016
1.19121375699
1.18950571569
1.22302586624
1.28387849049
1.35765716338
1.42597507786
1.4697027364
1.47235254255
1.42302422303
1.31840075407
1.16344846014
0.970698845127
0.758234793903
0.546727671919
0.356035840625
0.201950843283
0.257645458759
0.405493469303
0.593690407988
0.805108146807
1.01815978797
1.21036158217
1.36205665145
1.45965844703
1.49785482136
1.4803932008
1.4193125564
1.33275628735
1.24174534517
1.16647053759
1.12274590612
1.11923702803
1.15594390333
1.22420095474
1.30819414074
1.38773265362
1.44179554185
1.45223940623
1.40702527573
1.30240572398
1.14369289853
0.94447334815
0.724403950817
0.505968455825
0.310753760968
0.15588799425
0.261660270539
0.406826516353
0.596083784496
0.810967362216
1.02816181538
1.22337101084
1.37536407754
1.4694994218
1.50011907301
1.47140086012
1.39652245192
1.29528305036
1.19059506096
1.10445329212
1.0540794018
1.04890882639
1.08894156589
1.1647421839
1.25908902247
1.34998727321
1.41452453058
1.43290159265
1.39194079062
1.28746429554
1.12513007801
0.919579731725
0.692044127738
0.466819399193
0.267220980227
0.111713583589
0.263576438252
0.406449548245
0.597155774755
0.815893820286
1.03761971436
1.23622493999
1.38890463302
1.47996215487
1.50339371186
1.46380753555
1.37551999246
1.2599860873
1.14200967959
1.04538957841
0.988755058138
0.98231141431
1.02605864692
1.10979146045
1.2148805805
1.317527198
1.39292745343
1.41962634209
1.38330749745
1.27936268793
1.11379570725
0.902303193963
0.667690012232
0.436064679044
0.232471164878
0.0767107672276
0.263439636234
0.404602909676
0.597341393821
0.820517206432
1.04735784069
1.24994239575
1.40389201438
1.49245501309
1.50928177514
1.45941093466
1.35829755596
1.22905244647
1.09837091972
0.991855785456
0.929543934512
0.922410521536
0.970455546529
1.06270385484
1.17911855564
1.29409683917
1.38094339193
1.41654740645
1.38545381846
1.28262399379
1.1144075492
0.897556168194
0.656448707986
0.419006069424
0.212000759327
0.0565706599339
0.261277126723
0.40142033276
0.596880843688
0.825184192526
1.05782933611
1.26508298975
1.42099230313
1.50775054785
1.5186622841
1.45919654862
1.34594710343
1.20368055877
1.06098368213
0.945263283927
0.877963871455
0.87083045848
0.923863045
1.02531661725
1.15374666793
1.28174638665
1.38072900588
1.42592791541
1.40074935322
1.29972428254
1.12954814321
0.908027663616
0.66111569408
0.418545519291
0.208818182411
0.0544081504221
0.257088909717
0.396901817496
0.595774124355
0.829894778568
1.06903420063
1.281646722
1.44020549927
1.52584875915
1.53153523875
1.4631643774
1.33846863489
1.18387042419
1.02984796681
0.905612073822
0.834014868969
0.827571225141
0.886281142336
0.997629747665
1.13876491739
1.28047584044
1.39228429529
1.44776786898
1.42919410173
1.33066355419
1.15921748926
0.93371768023
0.681690970514
0.434683028644
0.222923434129
0.0702232386921
0.25084772298
0.390913631772
0.59378103383
0.834302292686
1.08051929249
1.29907398086
1.46086552129
1.5459770956
1.54702161782
1.47032892987
1.33477018931
1.16842361184
1.00365887298
0.87149078448
0.796179086517
0.791008511105
0.855979058244
0.977805995923
1.13222958396
1.2882350106
1.41345260034
1.47980413746
1.46841846442
1.37296573929
1.20083304803
0.971937208836
0.715379058208
0.464516648528
0.251308095645
0.100901036029
0.242507892176
0.383215430889
0.590466557056
0.837777049465
1.09146025592
1.3163457402
1.4817586727
1.56672719035
1.56351838409
1.47889249846
1.33285938875
1.15515307343
0.980034682003
0.840323026892
0.761685464727
0.75817658664
0.829796392633
0.962490291571
1.13059092683
1.30127948597
1.44029483951
1.51790296897
1.51409401905
1.42210774523
1.24967705656
1.01777381611
0.757072853475
0.502744604893
0.288475722553
0.140750427667
0.232021455554
0.373509763643
0.585283753373
0.83952261879
1.10081117136
1.33216659099
1.50134005503
1.58630465546
1.57898166019
1.48656171633
1.33019337693
1.1412664632
0.955933558663
0.808817476399
0.726993189486
0.725285148179
0.80369335248
0.947393352132
1.12931017406
1.31482100517
1.46777326196
1.55677712321
1.56068403587
1.47230335282
1.29971380618
1.06494230393
0.800237668749
0.54258272072
0.327392648378
0.182488257677
0.219358684942
0.361505317798
0.577679726484
0.838724520299
1.10749597437
1.34519888476
1.51801043571
1.60284867432
1.59128904542
1.49095259872
1.32412658502
1.12385662829
0.928186766028
0.773543812002
0.688410355733
0.688380706598
0.773454864599
0.928038520356
1.12364908435
1.32385974281
1.49062645824
1.59090360668
1.60240393731
1.51750640042
1.3446355512
1.10687334254
0.838042590207
0.576938498123
0.360704791169
0.218498860044
0.204529320807
0.346982839824
0.567206228858
0.834705512466
1.11060842943
1.35430739197
1.53040559123
1.61476602942
1.59861832829
1.49001394014
1.31237881353
1.10041437518
0.894056116594
0.7315348522
0.642740787969
0.6440380924
0.735426765493
0.900542638749
1.1094955062
1.32405455341
1.50428428888
1.61548328589
1.63422559588
1.55245976655
1.37895617615
1.13785182248
0.864543514378
0.599638839632
0.38201005946
0.242151149305
0.187600673311
0.329852160406
0.553615611706
0.827060467024
1.1095859288
1.3587720254
1.53764795489
1.62102167457
1.59977698313
1.48239573545
1.29344257785
1.06927473981
0.851719166808
0.680810673963
0.587847083686
0.5899624236
0.687156693704
0.862295866376
1.0840821192
1.31248063708
1.5056644745
1.627276402
1.65275177328
1.57360873342
1.39896348376
1.15400806698
0.875713285038
0.606499109548
0.386966338075
0.248945530807
0.168709242755
0.310190256082
0.536925327803
0.815747312984
1.10432687772
1.35843166654
1.53951688442
1.62133544375
1.59442532014
1.46769877109
1.26685914066
1.02991946106
0.800598131811
0.620733968669
0.523032410502
0.525397344053
0.627828769321
0.812422799564
1.04647399592
1.28814354261
1.49371304015
1.6251694563
1.65680944701
1.57972075478
1.403365404
1.15399048228
0.870140784647
0.596048666567
0.374043461948
0.237292315722
0.148063595295
0.288253519605
0.517439596494
0.801118096289
1.09523114874
1.35373401453
1.53650790554
1.61625068926
1.58315451824
1.44656205257
1.23331533405
0.983083197663
0.741475496902
0.552135048213
0.449174906904
0.451268818841
0.558416784023
0.751945056586
0.99774058122
1.25216054148
1.46959508387
1.61037537342
1.64765936832
1.57210440846
1.39351834133
1.13920329941
0.849278070834
0.569787394913
0.344789141897
0.208787041461
0.125937706607
0.264461837112
0.495724214385
0.783884524008
1.08315635939
1.34568259736
1.52977045671
1.60706276005
1.56740583683
1.42057274975
1.19454423836
0.930644940388
0.676376163336
0.477184724313
0.368591295077
0.370039480614
0.481529280925
0.683617091021
0.940782239148
1.20757790819
1.43650279066
1.58623224881
1.62878554311
1.55438961084
1.37319812257
1.11356825567
0.817192791361
0.531928852814
0.303562846615
0.167935087184
0.102655602242
0.239356914052
0.472538566818
0.765023661378
1.0692972548
1.33568984006
1.52093464287
1.59561944093
1.54924474062
1.39201400723
1.15304667808
0.875323193641
0.608236315406
0.39903686116
0.284653119106
0.285298553353
0.400973163901
0.611463486641
0.87984123337
1.1588555863
1.39911378395
1.55763538583
1.60530095463
1.53190702507
1.34795309075
1.08285137398
0.779868649059
0.488674422994
0.256783638722
0.121373195406
0.0785695997586
0.213541716814
0.448736269013
0.745639772449
1.05500874784
1.32536130434
1.51185667454
1.58402759126
1.53102873781
1.36349398206
1.11168145908
0.820227412111
0.540416056633
0.321302211103
0.201221780171
0.201158087067
0.321111131792
0.540097591115
0.819781560387
1.11110822115
1.36279335792
1.53020072746
1.58307219471
1.51077389178
1.32415113537
1.05367119267
0.744174831068
0.447143941425
0.211822003019
0.0767224997566
0.0540355393103
0.187611138449
0.425151266918
0.726805856068
1.04160289028
1.31624809485
1.50432670928
1.5743164215
1.51502609173
1.33751999046
1.0731949505
0.768343017834
0.47613986195
0.247444301974
0.121999859002
0.121559715386
0.246123871126
0.47393914387
0.765262012522
1.06923365795
1.33267841068
1.50930422472
1.56771426726
1.49684426781
1.30788536614
1.03235987434
0.716682552898
0.414147676516
0.175727260814
0.0412713744437
0.0293888894682
0.162085494354
0.402488722758
0.709411921287
1.03015453798
1.30960991428
1.49978929661
1.56811532799
1.50305104558
1.31609112245
1.03977108916
0.72203879447
0.417961361845
0.180201611087
0.0499106797388
0.0496116092744
0.179304399694
0.416466009523
0.719945301219
1.03707945498
1.31280134734
1.49916312954
1.56362927102
1.49470509872
1.30392757545
1.02387405823
0.702533300606
0.395011961148
0.154010591815
0.0207158460005
