# vtk DataFile Version 2.0
Function: z = f(x,y,z)
ASCII
DATASET STRUCTURED_POINTS
DIMENSIONS 30 30 1
ORIGIN 0 0 0
SPACING 0.05 0.05 0.05
POINT_DATA 900
SCALARS density float
LOOKUP_TABLE default
0.0834940330397
0.210951553329
0.337768180145
0.46203432316
0.581724430737
0.694833002918
0.799515586568
0.894212627846
0.97773690401
1.04931141335
1.10855300571
1.15540623537
1.19004032421
1.21272828528
1.22373011096
1.2232009863
1.21114091128
1.18739470087
1.15170236269
1.1037908837
1.043491042
0.970858283328
0.886275757829
0.790520467216
0.68477963423
0.570612812713
0.4498644558
0.32454006345
0.196665187298
0.0681494176737
0.121571264827
0.247976162368
0.376686070373
0.504739193499
0.628749217459
0.745283872031
0.851259603138
0.944286289676
1.02290446521
1.0866759556
1.13611403233
1.17246675397
1.19739235938
1.21258403235
1.21940988885
1.21863117322
1.21024788547
1.19349878124
1.16701574457
1.12910559168
1.07811008369
1.01278116204
0.932605555249
0.838021437454
0.73048827509
0.612396189261
0.486828734044
0.357218179661
0.2269508404
0.0989885116011
0.159449299994
0.285717193579
0.417236001562
0.54999172359
0.679237282723
0.800113638477
0.908298135831
1.00057008642
1.07519778011
1.13208187035
1.17263205024
1.19939988264
1.21553262342
1.22414362708
1.22770913319
1.22759644539
1.22380556369
1.21496918443
1.19861106806
1.17161786005
1.13084230456
1.07373283873
0.998879769442
0.906382443256
0.797972570305
0.676870838954
0.547399904224
0.414418806598
0.282674623018
0.156181353836
0.196534617222
0.323254088949
0.458170379008
0.596217282037
0.731286958442
0.857093597475
0.968075443174
1.06018123991
1.13140703386
1.18199230604
1.21424317119
1.23201469646
1.23994315469
1.24256207115
1.24345580896
1.24459773109
1.24598783754
1.24565276534
1.24000815137
1.22452047035
1.19455344946
1.14625202154
1.07731007185
0.987488119374
0.878790117933
0.755267323159
0.622481491013
0.486718432243
0.354085986442
0.229650358974
0.232197653166
0.359534345389
0.498013759879
0.641517486263
0.782576922293
0.913479486961
1.02742432336
1.1195296086
1.18751914516
1.23197124163
1.25608843439
1.2650292949
1.26491911294
1.26171158454
1.2600991964
1.26266137082
1.26939810777
1.277729985
1.28296451578
1.2791480041
1.26015516016
1.22082741251
1.15796222478
1.07098128836
0.962160800786
0.836382584942
0.700447497735
0.562068120175
0.428713054508
0.306500711109
0.265815076757
0.393491176208
0.535255901861
0.683938638332
0.830710020721
0.966430697755
1.08306071159
1.17488767206
1.23936313797
1.27740424546
1.29310995257
1.29294233503
1.28451569962
1.27520391309
1.27080758575
1.27451219918
1.28631775337
1.30303876675
1.31887462902
1.32645147341
1.31815499315
1.28752311251
1.23045687346
1.14603913984
1.03681835286
0.908506902679
0.769144747143
0.627871237525
0.493515738725
0.373248866127
0.296813612022
0.424166179464
0.568553277044
0.721752084366
0.873572473877
1.01344832404
1.13210057607
1.22298627254
1.28328472855
1.31425190784
1.32088319006
1.31094415524
1.29353812714
1.27745914325
1.26961593746
1.27380005067
1.29001148286
1.31445869316
1.34023294767
1.3585402089
1.36027715309
1.33767820022
1.28574797061
1.20323050055
1.09294647493
0.961438851179
0.817986688078
0.673156107166
0.537137235995
0.418152894962
0.324708532764
0.450816479678
0.596904860665
0.753698650316
0.909646958429
1.0527568932
1.1725102949
1.26153363886
1.31673399645
1.33970615901
1.33634192782
1.3157103872
1.28840387789
1.26463660812
1.25242543536
1.25616795983
1.27586418151
1.3071165002
1.34190805844
1.37002464798
1.3808739281
1.36538681447
1.31767150579
1.23613321077
1.12386485799
0.988239972143
0.839776712956
0.69046797223
0.551864640169
0.43324174218
0.349130837323
0.472988458904
0.619772418493
0.779155485671
0.93822600758
1.08356432216
1.20341316873
1.28956845536
1.33866500974
1.35263645076
1.33827100135
1.30594125013
1.2677285548
1.23526729435
1.21768244983
1.21997768074
1.2421529871
1.27920470939
1.32200786654
1.3589280796
1.37788399084
1.36850301165
1.3239969191
1.24243209431
1.12717370957
0.986425856823
0.831945796746
0.677153191401
0.534959693645
0.415692533897
0.369839025167
0.490545927884
0.637125072544
0.798197023717
0.959489365893
1.10615566675
1.22519956466
1.30758640043
1.34967875806
1.35374908402
1.32748202287
1.28255366751
1.23253439263
1.19047874796
1.16661983814
1.16656738198
1.19032137948
1.23227211183
1.28218647438
1.32700991742
1.35317206625
1.34899682797
1.30679955801
1.22430780992
1.10515899969
0.958387786514
0.796990532016
0.635813668521
0.48912961154
0.368317796501
0.386714009085
0.503648416943
0.649400970678
0.81154002985
0.974432416297
1.12180492743
1.23942210068
1.3174187096
1.35188509449
1.34543252939
1.30664208049
1.248493345
1.18604571459
1.13377390971
1.10301915858
1.09999723935
1.124708152
1.17093611842
1.22733991037
1.27944480739
1.31219141782
1.31260014445
1.27208992109
1.18804947371
1.06438846198
0.910972112385
0.742035887471
0.57385298983
0.422056597627
0.299078351302
0.399738555944
0.512683836173
0.657393166214
0.820382700617
0.984658498565
1.13252058721
1.24849440304
1.32188415233
1.34850793171
1.33131584278
1.27978537337
1.20819962498
1.13310700626
1.07040240839
1.0325351832
1.02632716813
1.05177836316
1.10206693088
1.16474351945
1.22391323768
1.26302767694
1.26780373572
1.22876392619
1.14295814674
1.01456830076
0.854290181966
0.677598353866
0.502192789311
0.345067429118
0.219706118736
0.40896526174
0.518167584145
0.662079860298
0.826166039735
0.992071418989
1.14066925494
1.25524588315
1.32427494263
1.3433022863
1.31561684335
1.25159252323
1.16681593174
1.07932449451
1.00643327347
0.961699744022
0.952551802908
0.978989450131
1.03358478895
1.10278034395
1.16926105321
1.2149894911
1.22437905183
1.18705582593
1.09973088422
0.966858373784
0.799964655601
0.61576339412
0.433381332455
0.271173174075
0.143674969443
0.414478981879
0.520625920684
0.664428717171
0.830299115868
0.998521650651
1.14854280814
1.26240982296
1.32776576685
1.33988424903
1.30239302627
1.22656242967
1.12928256932
1.0300798878
0.947689617809
0.896777358322
0.885377065394
0.913488739027
0.973078423168
1.04948051883
1.12395979333
1.17698980407
1.19168044098
1.15676137294
1.0686048432
0.931937242528
0.75911549918
0.568092378542
0.379421393991
0.212818011649
0.0838704869896
0.416360524802
0.520484071021
0.665209378858
0.833895987827
1.00546766916
1.1579441392
1.27213353163
1.33484835094
1.34108996266
1.29482495111
1.20822006904
1.09946893083
0.989586996048
0.898729668114
0.842670669604
0.830050015878
0.860867706935
0.926483727415
1.01112435474
1.0946341855
1.15599776012
1.17702146421
1.14553854504
1.05758241828
0.918151718396
0.740433940897
0.543620952116
0.349693035694
0.179726420404
0.0503615667321
0.414658123697
0.51797863813
0.664846818115
0.837569998156
1.01371118683
1.16986333023
1.28559546107
1.3468895166
1.34847461865
1.29465617912
1.19849737238
1.0794953171
0.960154489856
0.862050464783
0.802065088049
0.789444434323
0.824188503604
0.897051221224
0.991150741019
1.08491148884
1.15582898812
1.1844061202
1.1575797107
1.07104434772
0.930070909421
0.74867745857
0.547294962446
0.349330474951
0.177220987513
0.048659165627
0.409371778564
0.513109622009
0.663341034942
0.841321146856
1.02325220367
1.18430038122
1.30279561128
1.36388926383
1.36203821701
1.30188671029
1.19739433968
1.06936172815
0.941782369228
0.837652007815
0.774960613657
0.763560320729
0.803451129034
0.884780904592
0.989559677656
1.09479170333
1.17648348809
1.21383440895
1.19288486992
1.10899063152
0.967694815601
0.783846052198
0.579114409529
0.378333711761
0.205301712974
0.0787632836744
0.400453256215
0.505640419687
0.660267056582
0.844536091382
1.03328900735
1.20026521007
1.32255553036
1.38448077095
1.38022556626
1.31477298337
1.2029790399
1.06694786313
0.932161963555
0.823037256816
0.758671836247
0.749523895133
0.795593433475
0.886422257986
1.00291227533
1.12064756988
1.21414563112
1.26130233178
1.24726165424
1.16704053143
1.02645432891
0.841182243965
0.634133445767
0.43156852874
0.258646009617
0.135162963918
0.387821748208
0.495145805932
0.654855241013
0.846100772922
1.04236312227
1.21595492438
1.34272790913
1.40617231197
1.40020052365
1.33013443881
1.21172649671
1.06838432892
0.927079462912
0.813647985072
0.748296112317
0.742088097241
0.795023939844
0.896039387532
1.02492822338
1.15585436103
1.26184627297
1.31949632766
1.31305208583
1.23719165284
1.09800263793
0.911994805676
0.703316426171
0.49965486411
0.327529398877
0.207789311001
0.371392399139
0.481099520918
0.64613792399
0.844606122814
1.04862407535
1.22907764665
1.36057946566
1.42578920056
1.41834699842
1.34391358143
1.2191378105
1.06873082149
0.921153158863
0.803661079726
0.737568924589
0.734547005355
0.794595322024
0.906043562694
1.04757738686
1.1919405374
1.31067246986
1.37906204838
1.38046041205
1.30920683868
1.17166118121
0.985163771441
0.775101980434
0.570589943143
0.399507701603
0.283756741356
0.351112613011
0.462986166077
0.63313690437
0.838611137339
1.05016806029
1.23726676802
1.37328078852
1.44003922271
1.43090997397
1.35189259207
1.22053235954
1.06284391655
0.908776824524
0.787007511321
0.719958441033
0.719905984872
0.786850142838
0.90851454372
1.06247672342
1.2200602541
1.3513155743
1.43022804388
1.4392523803
1.37238903378
1.23627010096
1.04906648092
0.837404645639
0.631825500347
0.461569849732
0.349591384345
0.326999622957
0.440417831314
0.615059128832
0.826917619952
1.04539173733
1.23851380548
1.37841825147
1.44610360897
1.43466553763
1.35044241482
1.2118759447
1.04628427173
0.88510597431
0.758437651045
0.68980988961
0.692105120526
0.765323343794
0.896582128892
1.06235088814
1.23253302295
1.3756899549
1.46450353954
1.48053207271
1.41743717705
1.28212319289
1.09359158657
0.879707931027
0.67243990174
0.502389066054
0.393561319531
0.299172516188
0.413234986304
0.591466449518
0.808808805256
1.03329972352
1.23154475857
1.37443923653
1.44215112379
1.42750383633
1.33717457907
1.19050147784
1.01610618135
0.84691628501
0.714448558152
0.643341712039
0.647084236502
0.72567613154
0.865628907323
1.04230385259
1.224184198
1.37834234816
1.47615665434
1.49828899073
1.43806215239
1.30265272336
1.11189273724
0.894886867896
0.685029561083
0.514283146795
0.407705725604
0.267872793235
0.381573820307
0.562389744411
0.784210259964
1.01371227432
1.21607457146
1.36095337658
1.4276860888
1.40882388041
1.31138278391
1.15559734674
0.971392721944
0.793185521877
0.653912686622
0.579321051028
0.583505164233
0.666465026237
0.814106087901
1.00068151438
1.19325436559
1.35740802916
1.46321735207
1.49044778687
1.43208330106
1.29557272235
1.10157865162
0.880444863676
0.666992574533
0.494544876838
0.389212076176
0.233469455761
0.345887951268
0.528367247743
0.753744834589
0.987336856506
1.19289532722
1.33883737098
1.40366981965
1.37967160181
1.27419757754
1.10837871593
0.91344367429
0.725298081976
0.578299049804
0.499301536207
0.503006149634
0.589412890083
0.743821149109
0.939375968276
1.14172023677
1.31494832523
1.42783157635
1.45923902104
1.40181579923
1.26328298233
1.06513373846
0.8389509434
0.620982583406
0.445912513785
0.340903245131
0.19644722996
0.306920254665
0.490399984274
0.718671703178
0.955690793423
1.16378249848
1.31012484164
1.37239408751
1.34259692098
1.22842702972
1.05191180442
0.845583406709
0.646836482912
0.491448314585
0.40738198375
0.409944158162
0.499134837821
0.659647354971
0.863518627592
1.07497137412
1.25661094825
1.37590518834
1.41082670369
1.35368180664
1.2124638123
1.00949645607
0.77760171465
0.55445434457
0.376098963785
0.270750287903
0.157379391806
0.265629132442
0.449831481917
0.680719519611
0.920887864917
1.13123499104
1.27769982033
1.33712805014
1.30125412167
1.17811055013
0.990621147878
0.77262158083
0.562995512281
0.398940394533
0.309527433192
0.310669355321
0.402366160921
0.568705122928
0.780615035735
1.00089844704
1.19067169355
1.31609910935
1.35425688209
1.29711249653
1.1529315115
0.944868229634
0.706983728587
0.478379535151
0.296461029936
0.190495133558
0.116889272367
0.223081371289
0.408171982984
0.641841981823
0.885325224545
1.09809341409
1.24484637187
1.30159922798
1.2598141799
1.12786257045
0.9295646336
0.700059539566
0.479719968621
0.307163543806
0.212569594312
0.212456906514
0.30682548041
0.479156529628
0.699270724976
0.928550443413
1.12662300466
1.25834923852
1.299908911
1.2429306793
1.09595234592
0.882958780776
0.639250162457
0.405354788021
0.220038800729
0.113621326209
0.0756064349896
0.180329474296
0.366896930309
0.60393747239
0.851324194626
1.06710202969
1.21473169806
1.26939776256
1.22229017698
1.08211911171
0.873601222363
0.633179183441
0.402714692197
0.222245542413
0.123059186866
0.122280471238
0.219909395528
0.398821114055
0.627728174042
0.866592781707
1.0735532398
1.21216687381
1.25771702813
1.20149353238
1.05230643275
0.834971166428
0.586027012935
0.347429039597
0.159304152327
0.0530236817641
0.0341244009926
0.138293999473
0.327253918595
0.568580622709
0.82078644325
1.04048954263
1.18991154038
1.24340643205
1.19189192777
1.04441702547
0.826594802412
0.576171437393
0.336497644642
0.149031388679
0.0461682458685
0.0456391212007
0.147444014676
0.333852021303
0.572467564719
0.821832680402
1.03859665412
1.18501330709
1.23546956204
1.18091642103
1.03043617394
0.809674825226
0.55641075535
0.3140258019
0.124007633442
0.0187797856266
