# vtk DataFile Version 2.0
Function: z = f(x,y,z)
ASCII
DATASET STRUCTURED_POINTS
DIMENSIONS 30 30 1
ORIGIN 0 0 0
SPACING 0.05 0.05 0.05
POINT_DATA 900
SCALARS density float
LOOKUP_TABLE default
0.0903801388574
0.245694490608
0.400229377324
0.551662324281
0.697529822733
0.835392751109
0.963007855597
1.07847838152
1.18036040934
1.26770893696
1.34005797096
1.39734007734
1.43976106652
1.46765298139
1.48133202889
1.48098694759
1.46661773748
1.43803566
1.39492450821
1.33695223922
1.26391304261
1.17587435237
1.07330216195
0.95714147341
0.828836206313
0.690283115327
0.543725454265
0.391602344697
0.236377295371
0.08037278101
0.114252889869
0.268427804625
0.425406110485
0.581585623925
0.732847854594
0.875018419793
1.00434705105
1.11792684431
1.21398277284
1.29198192214
1.35254854132
1.39720053943
1.42795469349
1.44687028107
1.45561122699
1.45510336897
1.44534670701
1.4254154034
1.3936455333
1.34797781916
1.28639548394
1.2073806186
1.11030897403
0.995713464731
0.86536911744
0.722182836205
0.569904889498
0.412709660021
0.254715638124
0.0995250073311
0.137995730043
0.291628350494
0.451647218185
0.613170440797
0.770424546375
0.917499891085
1.0491391918
1.16142539509
1.25225236702
1.32149928069
1.37088062774
1.40349966027
1.42318412189
1.43372052487
1.4381205119
1.43804701986
1.43350004874
1.42281666168
1.40298521597
1.37021919935
1.32069086823
1.25129697047
1.16032301445
1.04788982707
0.916103542277
0.768881213482
0.611480123819
0.449809917122
0.289644065346
0.135864460809
0.161221580256
0.314695764292
0.478139051706
0.64538984138
0.809019679755
0.961383661867
1.09571748992
1.20709396113
1.29307583436
1.35395437029
1.39253430309
1.41350422793
1.42250285501
1.42504393128
1.42548681731
1.42623154914
1.42727812675
1.42622651413
1.41871735069
1.3992368895
1.36214642035
1.30275734807
1.21826493849
1.10837793092
0.975533566514
0.824659048048
0.662518673321
0.496757347294
0.334803523527
0.182818803137
0.183519855718
0.336943630962
0.503919365721
0.67700575008
0.847119348874
1.00487999601
1.14201637904
1.25259114579
1.33383594793
1.38645413375
1.41434067992
1.42376952469
1.42219034485
1.41684412204
1.41343793469
1.415108918
1.42185707198
1.43054526141
1.43546640787
1.42937952973
1.40483495018
1.35555873099
1.27765589547
1.17042309534
1.03662867894
0.882209998428
0.715438366257
0.545693948522
0.382060180388
0.231978371768
0.204484036168
0.357676220054
0.528003219591
0.706744016069
0.883160192717
1.04613632231
1.18589407774
1.29548595747
1.37181250596
1.41598915909
1.43300113608
1.43070771821
1.41836954889
1.40495484442
1.39751840113
1.39993445337
1.41220300113
1.43044981007
1.44762008386
1.45474560619
1.44256573367
1.40322118501
1.33172674099
1.22696696573
1.09204131477
0.933897289646
0.762313217467
0.588404525459
0.422909630391
0.274549550974
0.223740245969
0.376268486821
0.549514399461
0.733477256382
0.915763659209
1.08352291959
1.22546969574
1.33364633677
1.40462227993
1.43992504871
1.44563010482
1.43118207265
1.40765256217
1.38573702438
1.37383797346
1.37656674294
1.39392333282
1.42129640958
1.45028345902
1.47018903016
1.469941513
1.44009628319
1.37457787899
1.27185877693
1.13536953973
0.973067818319
0.796238954455
0.617733636497
0.44994526282
0.302874560931
0.240972359344
0.392235947257
0.567800063096
0.756384270554
0.943940189654
1.11588187091
1.25941695789
1.36557765031
1.43060227824
1.45643045275
1.4502278781
1.42302452171
1.38770296016
1.35668587914
1.3397235107
1.34216428752
1.36400820961
1.39990684428
1.44010995948
1.47219486951
1.48327899781
1.46233237695
1.40218930266
1.30091016389
1.16225663056
0.995196502947
0.812522137494
0.628819483682
0.45813692149
0.311754887224
0.255939723033
0.40528276357
0.58250918817
0.775058851729
0.967228392665
1.14269660036
1.28716410372
1.3906529531
1.44907037137
1.46476805717
1.44600195732
1.40538738228
1.35761787523
1.31684335653
1.29416177613
1.29565866585
1.32133402571
1.36510232387
1.41586561037
1.45947396487
1.48123384418
1.46852993783
1.41310629902
1.3126112291
1.17113750519
0.998663076954
0.809487315474
0.61993143137
0.445698786227
0.299349525147
0.268484836691
0.415320116679
0.593621636867
0.789549543355
0.985745492955
1.16415301392
1.30896572049
1.40919551365
1.46041850908
1.46539849301
1.43348165478
1.37886864791
1.31806398219
1.26694481265
1.23795680711
1.23792259657
1.26684218103
1.31789292949
1.37862917414
1.43317375992
1.46502217708
1.45997377207
1.40868235556
1.30838414132
1.16350301366
0.985027071621
0.788762700942
0.592766373374
0.414396432107
0.267492731039
0.278530034746
0.4224520481
0.601423157793
0.800323801125
1.0001406533
1.18108198145
1.32583438516
1.42239961602
1.46602268252
1.45987945849
1.41440637579
1.34538943102
1.27114410053
1.20927477407
1.17357483731
1.17160402042
1.20336232339
1.26129001607
1.33159371278
1.39666902377
1.43820047268
1.44040206293
1.39283736264
1.292330498
1.14363646051
0.958753498579
0.754995012617
0.552152735501
0.369239992025
0.221376344887
0.286064078196
0.426931542677
0.606430959633
0.808163057569
1.01145953009
1.19479338318
1.33934420177
1.43210358809
1.46798544343
1.4505777292
1.39140711979
1.30784495487
1.22001767739
1.14725691175
1.10470376154
1.10065505605
1.1351107953
1.19977414996
1.27950401648
1.35496877044
1.40604196887
1.41535227213
1.37137300582
1.27051620853
1.11786797897
0.926436714913
0.715042831427
0.505213322522
0.317616494598
0.168651619148
0.291121268779
0.429094729912
0.609282999656
0.81400709772
1.0209437361
1.20683065966
1.35134043866
1.44045452597
1.46875571566
1.44024405676
1.36753646618
1.26958962663
1.16834094767
1.08484928839
1.03560347024
1.02963742169
1.06695114274
1.13851070491
1.22782728677
1.31384202921
1.37461752269
1.39119708448
1.35096379768
1.24991761327
1.09347573716
0.8956567165
0.676787981014
0.460131785846
0.268011418997
0.118105860759
0.293756946977
0.429284822733
0.610610363238
0.818774879402
1.02980010162
1.21868851362
1.36360567101
1.44952287727
1.4706918193
1.43152463369
1.3457284799
1.2338453837
1.11962372123
1.02584958629
0.970359518175
0.962924544527
1.00354466534
1.08244885299
1.18180056816
1.27881371707
1.34973992356
1.37403716187
1.33799827254
1.23721111899
1.0774240143
0.873665655007
0.647770485494
0.424736022033
0.228540534232
0.07814271118
0.294023813948
0.427779141945
0.610914990828
0.823192962711
1.03897980638
1.23154274444
1.37754031783
1.46093368066
1.47564341264
1.42649373795
1.32828205857
1.20313574334
1.07661413499
0.973230561988
0.91216928153
0.903938420404
0.94853797861
1.03545982936
1.14551971546
1.25420430844
1.33595426557
1.368642218
1.33747076377
1.23761567869
1.07515638304
0.866131722734
0.633883156812
0.405143462678
0.205545891543
0.0553288412936
0.291953326117
0.424731993834
0.610474038573
0.827661353652
1.04900570625
1.24603905785
1.39391293472
1.4755783416
1.48462475101
1.42628847472
1.31645715722
1.17884351043
1.04081784367
0.928620720099
0.862784114774
0.854553253648
0.903928136721
0.999663538043
1.12122748255
1.24237940709
1.33574900233
1.37762355637
1.35211542471
1.25398829557
1.08965269645
0.876157622607
0.638351547753
0.404702510423
0.202498743431
0.0532583534631
0.287545483486
0.420143378399
0.609287506473
0.832180052225
1.05987780124
1.26217745384
1.41272352167
1.49345686009
1.4976358344
1.43090884398
1.31025377585
1.16096868498
1.01223484729
0.89202006062
0.822204017907
0.814769044259
0.869715139676
0.975059979051
1.10892386945
1.24333901302
1.34912413385
1.40098117697
1.38193225537
1.28632896965
1.12091295453
0.903743354624
0.661175658317
0.423413165268
0.219399089898
0.0719312476885
0.280768829627
0.413858989355
0.60707823838
0.836349052425
1.07107323546
1.2793122267
1.43320352311
1.51367783067
1.51366240751
1.43921774057
1.30841195943
1.1481284621
0.989359491098
0.861800078948
0.788677636463
0.78271158791
0.84390193329
0.959529248336
1.10636612223
1.25471752246
1.3735912065
1.43610377632
1.42418710238
1.33178069772
1.1659573042
0.945786215862
0.69912993572
0.45792702457
0.25277567844
0.107753421607
0.271570663382
0.405601505897
0.603344293847
0.839441794156
1.08164082919
1.29626757703
1.45395251999
1.53461621467
1.530854812
1.44914088653
1.30863281034
1.13779932453
0.969443638185
0.834988018528
0.759007594245
0.75495888876
0.822841902075
0.949200110763
1.10945838614
1.27219446098
1.4046051262
1.47822164071
1.47388563241
1.38512452675
1.21934217283
0.99661801402
0.746321568014
0.502126656737
0.296286457818
0.154158204334
0.259895644271
0.395027715098
0.597454587497
0.840539319595
1.09037375216
1.31154880213
1.47318793715
1.55420156448
1.54685472783
1.45803208935
1.30798226364
1.12675933486
0.948977478703
0.807786197064
0.729108336506
0.727137519615
0.801873746389
0.939123394245
1.11296361662
1.29024491162
1.43635310354
1.52123410824
1.52463931111
1.43968404999
1.27410328118
1.04898659743
0.795210531086
0.548184165205
0.341815659023
0.202741954413
0.245709470556
0.381801487454
0.588771162061
0.838701843707
1.09603039155
1.32361246141
1.48906450627
1.570286784
1.55921323113
1.46314059739
1.30340773993
1.11165408594
0.924304777727
0.776236551866
0.694719972793
0.694685762253
0.776133920247
0.924133725029
1.11141461216
1.30309984507
1.46276428146
1.55876849412
1.56977362591
1.48848292709
1.32296246115
1.09531197022
0.837915001293
0.587915898568
0.380877802881
0.244717364904
0.229023381237
0.365669838122
0.576776808853
0.833147933963
1.09756509101
1.33114867467
1.50000812328
1.58103354533
1.56582777015
1.46209963508
1.29227823977
1.08958835449
0.892266088138
0.736915411969
0.652154608297
0.653651498025
0.741406081153
0.899750536778
1.10006658259
1.30575024732
1.47856542208
1.58528733662
1.60348689125
1.52545524865
1.3595895795
1.1289997753
0.867576397708
0.614199052054
0.406085860779
0.27243318335
0.209915041887
0.346528725586
0.561185779269
0.82341013467
1.09432868774
1.33332657203
1.50500621122
1.58524756442
1.56532235377
1.45335150418
1.27285435785
1.05864102811
0.850758590448
0.6875382508
0.598946009357
0.60138678618
0.694860581271
0.862962474565
1.07572646588
1.29482134926
1.48020004923
1.59705245247
1.62185921677
1.54649941722
1.37970133168
1.14558500103
0.879548001609
0.622205199855
0.412429699819
0.280697569767
0.188541952851
0.324466968927
0.542018211124
0.80943990238
1.08620395704
1.32996024753
1.50380418285
1.58260557276
1.55730503219
1.43643557365
1.24460678187
1.01821411324
0.799115609824
0.62736971226
0.534290138607
0.537018908089
0.635556020704
0.812759457231
1.03731549961
1.26916570721
1.46645203795
1.59277903545
1.62353711498
1.55019326403
1.38180686767
1.14350811615
0.872201600453
0.61023744816
0.398143744926
0.267676267812
0.165144767388
0.299780405937
0.519625126744
0.791643443949
1.07365229029
1.32156627707
1.49697379862
1.57373451534
1.54245793496
1.41208915756
1.20832801042
0.969155292988
0.738240013917
0.557367848531
0.459200232765
0.461616285
0.564616005235
0.750320275091
0.986067658631
1.23007248054
1.43866573214
1.57386661401
1.60997529886
1.53804668661
1.36747126953
1.12438938722
0.847212645347
0.580026432611
0.365013816274
0.235210282195
0.140039611278
0.272953520623
0.494659368363
0.770841959842
1.05766324619
1.30930257758
1.4858413337
1.56012902554
1.52244405366
1.38214360574
1.16601775157
0.913632633652
0.670468227251
0.480037442368
0.376349432812
0.378020416124
0.485050392304
0.678823143811
0.925329516837
1.18105660138
1.40052442217
1.54416683672
1.58519377522
1.51424805
1.34105126051
1.09275389575
0.809274576019
0.536433951165
0.318070070049
0.188498127328
0.113600360154
0.24461135773
0.467997149838
0.748162833024
1.03961537682
1.29479887026
1.47228767836
1.54392116277
1.49964661683
1.34923331581
1.12056157204
0.854782871079
0.599188154781
0.399017567834
0.289627981923
0.290372713747
0.401251763305
0.602911813898
0.859995993843
1.12726415845
1.35742536587
1.50932813053
1.55509214012
1.48494811936
1.3089487749
1.05525474511
0.765291664965
0.486615445426
0.264719116965
0.135197583036
0.0862335342802
0.215449647709
0.440623411807
0.724880214323
1.02107204318
1.27990772629
1.45845461401
1.52754191861
1.47678582623
1.31636769974
1.07525809399
0.796193837602
0.52827683903
0.318474477643
0.203491342999
0.203417850956
0.318254001516
0.527909378818
0.795679393305
1.0745966656
1.31555928727
1.47583042967
1.52643953797
1.45720524929
1.27851137748
1.01952871029
0.723189897345
0.438786110744
0.213465362561
0.0841022650471
0.0583497184462
0.186154805618
0.413500399596
0.702232179333
1.00354715115
1.26641888181
1.44640770704
1.51333268971
1.45647890878
1.28643981471
1.03327620487
0.741310250956
0.461454828
0.242404550062
0.122211724575
0.121703866556
0.240880976006
0.458915537907
0.737755244826
1.0287054827
1.28085337651
1.44987675454
1.50571481943
1.43777412072
1.25676957946
0.992882132759
0.690551444906
0.400803949132
0.172442639117
0.0436218359078
0.0303359917731
0.157327195378
0.387441761926
0.681245661572
0.988280919033
1.25578583995
1.43781374537
1.5031735488
1.44081922202
1.26175630305
0.997135831814
0.692865323055
0.401668618404
0.173967566605
0.0491621929647
0.0488171116596
0.17293232269
0.399943211879
0.690449753919
0.994030100068
1.25796040869
1.43633316505
1.49799732923
1.43194736318
1.24922929515
0.981034211626
0.673308791555
0.378814729299
0.14801000014
0.0203286339257
