# vtk DataFile Version 2.0
Rectilinear grid of temperature values
ASCII
DATASET RECTILINEAR_GRID
DIMENSIONS 100 100 1
X_COORDINATES 100 float
0 1 2 3 4 5 6 7 8 9 10  11  12  13  14  15  16  17  18  19  20  21  22  23  24  25  26  27  28  29  30  31  32  33  34  35  36  37  38  39  40  41  42  43  44  45  46  47  48  49  50  51  52  53  54  55  56  57  58  59  60  61  62  63  64  65  66  67  68  69  70  71  72  73  74  75  76  77  78  79  80  81  82  83  84  85  86  87  88  89  90  91  92  93  94  95  96  97  98  99
Y_COORDINATES 100 float
0 1 2 3 4 5 6 7 8 9 10  11  12  13  14  15  16  17  18  19  20  21  22  23  24  25  26  27  28  29  30  31  32  33  34  35  36  37  38  39  40  41  42  43  44  45  46  47  48  49  50  51  52  53  54  55  56  57  58  59  60  61  62  63  64  65  66  67  68  69  70  71  72  73  74  75  76  77  78  79  80  81  82  83  84  85  86  87  88  89  90  91  92  93  94  95  96  97  98  99
Z_COORDINATES 1 float
0
POINT_DATA 10000
SCALARS temperature float
LOOKUP_TABLE default
20.18 20.36 20.54 20.73 20.93 21.13 21.35 21.58 21.82 22.09 22.38 22.70 23.06 23.46 23.92 24.44 25.05 25.77 26.63 27.68 28.99 30.68 32.90 35.99 40.50 47.61 60.00 84.65 142.03 300.00 300.00 300.00 300.00 300.00 300.00 300.00 300.00 300.00 300.00 300.00 300.00 300.00 300.00 300.00 300.00 300.00 300.00 300.00 300.00 300.00 300.00 300.00 300.00 300.00 300.00 300.00 300.00 300.00 300.00 300.00 300.00 300.00 300.00 300.00 300.00 300.00 300.00 300.00 300.00 300.00 142.04 84.67 60.02 47.63 40.53 36.02 32.94 30.71 29.03 27.72 26.67 25.82 25.10 24.49 23.97 23.52 23.13 22.77 22.46 22.17 21.91 21.67 21.45 21.24 21.04 20.85 20.67 20.50 20.33 20.16 
20.36 20.72 21.08 21.46 21.85 22.26 22.68 23.14 23.63 24.16 24.74 25.37 26.08 26.87 27.77 28.80 29.99 31.40 33.07 35.10 37.62 40.80 44.96 50.55 58.40 69.93 87.75 116.55 163.47 230.83 257.07 269.25 275.85 279.88 282.56 284.47 285.88 286.96 287.81 288.49 289.03 289.48 289.83 290.12 290.36 290.54 290.67 290.77 290.82 290.84 290.82 290.77 290.68 290.54 290.36 290.13 289.84 289.48 289.04 288.50 287.82 286.98 285.90 284.48 282.58 279.90 275.87 269.28 257.10 230.86 163.51 116.59 87.80 69.98 58.45 50.61 45.02 40.87 37.69 35.18 33.16 31.49 30.09 28.90 27.88 26.99 26.21 25.51 24.88 24.32 23.80 23.32 22.88 22.46 22.07 21.70 21.34 21.00 20.66 20.33 
20.53 21.07 21.61 22.17 22.75 23.36 23.99 24.67 25.39 26.18 27.03 27.97 29.01 30.17 31.49 32.99 34.72 36.75 39.15 42.04 45.57 49.97 55.56 62.86 72.61 85.95 104.53 130.34 164.48 202.78 228.21 244.09 254.27 261.10 265.91 269.43 272.10 274.16 275.80 277.11 278.17 279.03 279.74 280.31 280.76 281.12 281.39 281.57 281.68 281.72 281.69 281.58 281.39 281.13 280.77 280.32 279.75 279.05 278.19 277.13 275.82 274.19 272.12 269.46 265.94 261.14 254.31 244.13 228.26 202.84 164.54 130.40 104.60 86.03 72.70 62.95 55.66 50.07 45.68 42.16 39.28 36.89 34.87 33.15 31.66 30.35 29.20 28.17 27.25 26.41 25.65 24.94 24.28 23.67 23.08 22.53 22.00 21.48 20.98 20.49 
20.70 21.41 22.13 22.86 23.63 24.42 25.26 26.15 27.10 28.13 29.24 30.47 31.82 33.33 35.02 36.95 39.17 41.73 44.75 48.33 52.65 57.93 64.48 72.72 83.23 96.75 114.08 135.79 161.32 187.62 208.89 224.63 236.03 244.35 250.54 255.25 258.91 261.79 264.11 265.98 267.51 268.76 269.78 270.61 271.27 271.79 272.18 272.46 272.62 272.67 272.62 272.46 272.19 271.80 271.28 270.62 269.80 268.78 267.53 266.01 264.14 261.83 258.95 255.29 250.59 244.40 236.09 224.70 208.96 187.69 161.41 135.88 114.18 96.85 83.35 72.84 64.61 58.07 52.80 48.50 44.92 41.92 39.36 37.16 35.25 33.56 32.07 30.74 29.53 28.44 27.44 26.51 25.64 24.84 24.07 23.34 22.64 21.96 21.30 20.65 
20.86 21.74 22.62 23.53 24.47 25.45 26.48 27.57 28.73 29.99 31.35 32.83 34.47 36.29 38.33 40.63 43.25 46.27 49.78 53.90 58.78 64.62 71.69 80.31 90.85 103.73 119.25 137.40 157.42 177.46 195.11 209.52 220.87 229.73 236.66 242.13 246.49 250.00 252.86 255.20 257.12 258.71 260.01 261.07 261.92 262.59 263.10 263.45 263.66 263.73 263.66 263.46 263.11 262.61 261.94 261.09 260.03 258.74 257.15 255.23 252.90 250.05 246.54 242.18 236.72 229.80 220.95 209.60 195.20 177.56 157.52 137.52 119.38 103.86 90.99 80.46 71.86 64.80 58.97 54.10 49.99 46.50 43.50 40.89 38.60 36.58 34.79 33.17 31.71 30.37 29.15 28.01 26.95 25.96 25.02 24.12 23.26 22.42 21.60 20.80 
21.02 22.05 23.10 24.17 25.28 26.43 27.64 28.92 30.28 31.74 33.32 35.05 36.94 39.03 41.37 43.98 46.94 50.32 54.20 58.70 63.94 70.10 77.37 85.97 96.14 108.06 121.80 137.16 153.49 169.70 184.58 197.46 208.21 217.04 224.24 230.11 234.91 238.86 242.13 244.83 247.08 248.94 250.48 251.74 252.76 253.56 254.17 254.59 254.84 254.93 254.85 254.60 254.18 253.58 252.78 251.77 250.51 248.98 247.12 244.88 242.18 238.92 234.98 230.18 224.32 217.13 208.31 197.56 184.69 169.82 153.61 137.29 121.95 108.22 96.31 86.15 77.56 70.31 64.17 58.94 54.46 50.59 47.24 44.29 41.70 39.39 37.32 35.45 33.75 32.20 30.77 29.44 28.20 27.03 25.92 24.87 23.85 22.86 21.89 20.94 
21.17 22.35 23.54 24.77 26.03 27.35 28.73 30.18 31.73 33.38 35.16 37.10 39.21 41.54 44.12 46.99 50.22 53.87 58.01 62.75 68.19 74.46 81.71 90.07 99.67 110.58 122.74 135.93 149.67 163.28 176.05 187.52 197.49 205.99 213.15 219.16 224.20 228.42 231.96 234.93 237.42 239.50 241.23 242.66 243.82 244.73 245.42 245.91 246.20 246.29 246.20 245.92 245.44 244.75 243.85 242.69 241.27 239.55 237.47 234.98 232.02 228.49 224.27 219.25 213.24 206.09 197.60 187.63 176.18 163.42 149.82 136.09 122.92 110.76 99.87 90.28 81.94 74.71 68.45 63.03 58.31 54.18 50.56 47.35 44.50 41.95 39.65 37.56 35.66 33.91 32.29 30.79 29.38 28.05 26.78 25.57 24.41 23.28 22.17 21.08 
21.31 22.63 23.96 25.33 26.74 28.21 29.74 31.35 33.06 34.89 36.85 38.97 41.27 43.80 46.58 49.66 53.08 56.92 61.23 66.10 71.61 77.86 84.93 92.93 101.90 111.84 122.67 134.16 145.99 157.69 168.83 179.07 188.23 196.26 203.22 209.19 214.30 218.65 222.36 225.50 228.17 230.41 232.30 233.85 235.12 236.13 236.89 237.42 237.74 237.85 237.75 237.44 236.91 236.15 235.15 233.89 232.34 230.47 228.23 225.57 222.43 218.73 214.39 209.29 203.33 196.38 188.36 179.21 168.98 157.85 146.16 134.35 122.86 112.05 102.12 93.17 85.19 78.13 71.90 66.41 61.57 57.28 53.46 50.06 47.01 44.26 41.76 39.49 37.41 35.48 33.70 32.04 30.47 28.99 27.58 26.23 24.93 23.67 22.43 21.21 
21.44 22.88 24.35 25.85 27.40 29.00 30.67 32.43 34.29 36.26 38.38 40.65 43.12 45.80 48.74 51.97 55.54 59.50 63.90 68.81 74.29 80.42 87.25 94.82 103.15 112.22 121.92 132.07 142.42 152.67 162.52 171.71 180.10 187.62 194.27 200.09 205.16 209.54 213.32 216.56 219.34 221.70 223.68 225.34 226.69 227.76 228.58 229.16 229.50 229.62 229.51 229.17 228.60 227.79 226.72 225.38 223.73 221.75 219.40 216.64 213.40 209.63 205.26 200.20 194.39 187.75 180.25 171.87 162.68 152.85 142.62 132.27 122.14 112.45 103.41 95.09 87.53 80.73 74.62 69.16 64.27 59.89 55.96 52.42 49.22 46.31 43.66 41.23 39.00 36.92 34.99 33.19 31.48 29.87 28.33 26.85 25.42 24.03 22.67 21.33 
21.56 23.12 24.71 26.33 28.00 29.73 31.52 33.41 35.39 37.50 39.74 42.15 44.74 47.55 50.61 53.95 57.61 61.63 66.06 70.95 76.34 82.28 88.81 95.95 103.68 111.97 120.71 129.78 138.97 148.07 156.86 165.16 172.85 179.86 186.15 191.75 196.70 201.03 204.82 208.10 210.93 213.35 215.41 217.13 218.54 219.66 220.52 221.13 221.49 221.61 221.50 221.14 220.55 219.70 218.58 217.17 215.46 213.42 211.00 208.18 204.91 201.14 196.81 191.88 186.28 180.00 173.01 165.33 157.04 148.26 139.18 130.00 120.96 112.23 103.96 96.25 89.13 82.62 76.70 71.33 66.47 62.06 58.07 54.44 51.14 48.11 45.34 42.79 40.42 38.22 36.16 34.23 32.41 30.67 29.01 27.42 25.87 24.37 22.90 21.44 
21.66 23.34 25.04 26.77 28.54 30.38 32.29 34.28 36.38 38.59 40.95 43.46 46.16 49.06 52.20 55.61 59.31 63.35 67.76 72.58 77.84 83.56 89.78 96.49 103.66 111.26 119.20 127.36 135.60 143.77 151.69 159.23 166.29 172.80 178.73 184.07 188.85 193.09 196.82 200.09 202.93 205.38 207.47 209.23 210.67 211.83 212.72 213.35 213.72 213.85 213.73 213.36 212.75 211.87 210.72 209.28 207.53 205.45 203.01 200.18 196.92 193.20 188.97 184.21 178.88 172.96 166.46 159.41 151.89 143.98 135.83 127.61 119.46 111.54 103.96 96.81 90.12 83.93 78.23 73.00 68.21 63.82 59.82 56.14 52.77 49.67 46.80 44.15 41.68 39.38 37.21 35.17 33.24 31.40 29.63 27.93 26.29 24.68 23.10 21.55 
21.76 23.53 25.33 27.15 29.03 30.96 32.96 35.05 37.24 39.55 41.99 44.59 47.36 50.33 53.53 56.97 60.69 64.71 69.06 73.77 78.87 84.36 90.26 96.55 103.22 110.21 117.46 124.87 132.33 139.71 146.90 153.78 160.28 166.33 171.90 176.97 181.55 185.65 189.29 192.51 195.33 197.77 199.87 201.64 203.10 204.28 205.18 205.82 206.20 206.33 206.21 205.84 205.21 204.32 203.15 201.70 199.94 197.85 195.42 192.61 189.40 185.77 181.68 177.11 172.06 166.50 160.47 153.98 147.11 139.94 132.58 125.14 117.75 110.52 103.55 96.90 90.63 84.76 79.29 74.22 69.54 65.22 61.23 57.54 54.14 50.99 48.06 45.33 42.78 40.39 38.14 36.01 33.98 32.05 30.19 28.40 26.66 24.96 23.29 21.64 
21.85 23.70 25.58 27.50 29.46 31.47 33.56 35.73 38.00 40.38 42.89 45.55 48.37 51.39 54.61 58.06 61.76 65.73 70.01 74.59 79.50 84.75 90.34 96.25 102.46 108.92 115.57 122.33 129.13 135.85 142.41 148.73 154.72 160.35 165.56 170.36 174.72 178.67 182.20 185.34 188.10 190.52 192.60 194.36 195.83 197.01 197.92 198.56 198.94 199.08 198.95 198.58 197.95 197.05 195.88 194.42 192.67 190.60 188.20 185.44 182.32 178.80 174.87 170.51 165.73 160.53 154.92 148.94 142.64 136.10 129.39 122.62 115.87 109.24 102.81 96.62 90.74 85.18 79.95 75.07 70.51 66.28 62.33 58.67 55.26 52.08 49.11 46.33 43.72 41.27 38.94 36.74 34.64 32.62 30.68 28.81 26.99 25.20 23.45 21.72 
21.92 23.85 25.81 27.80 29.83 31.91 34.07 36.31 38.64 41.08 43.64 46.34 49.20 52.23 55.46 58.90 62.56 66.47 70.64 75.08 79.81 84.82 90.10 95.66 101.44 107.43 113.56 119.77 126.00 132.16 138.18 143.99 149.54 154.77 159.66 164.18 168.33 172.10 175.50 178.54 181.24 183.60 185.64 187.39 188.84 190.01 190.92 191.56 191.94 192.07 191.95 191.58 190.95 190.06 188.89 187.45 185.72 183.69 181.34 178.65 175.63 172.24 168.48 164.35 159.84 154.97 149.75 144.22 138.43 132.42 126.28 120.08 113.89 107.78 101.82 96.05 90.53 85.26 80.28 75.59 71.18 67.04 63.17 59.54 56.15 52.97 49.98 47.17 44.52 42.01 39.63 37.37 35.20 33.12 31.11 29.17 27.28 25.42 23.60 21.79 
21.99 23.98 26.00 28.05 30.14 32.29 34.50 36.79 39.17 41.65 44.25 46.98 49.86 52.89 56.11 59.51 63.12 66.94 71.00 75.29 79.83 84.60 89.61 94.83 100.24 105.80 111.48 117.21 122.94 128.61 134.16 139.53 144.67 149.55 154.13 158.38 162.31 165.91 169.17 172.10 174.71 177.00 179.00 180.71 182.14 183.29 184.19 184.82 185.20 185.33 185.21 184.84 184.22 183.34 182.19 180.78 179.08 177.10 174.81 172.22 169.30 166.06 162.48 158.56 154.32 149.76 144.90 139.77 134.42 128.89 123.24 117.53 111.82 106.17 100.63 95.25 90.05 85.07 80.33 75.83 71.57 67.55 63.76 60.19 56.83 53.66 50.67 47.85 45.17 42.63 40.21 37.90 35.68 33.55 31.48 29.48 27.53 25.61 23.72 21.86 
22.04 24.09 26.16 28.26 30.41 32.60 34.86 37.18 39.60 42.11 44.73 47.47 50.35 53.38 56.56 59.92 63.46 67.19 71.13 75.27 79.61 84.16 88.90 93.82 98.88 104.07 109.34 114.65 119.95 125.19 130.32 135.30 140.08 144.63 148.92 152.92 156.64 160.05 163.17 165.98 168.49 170.71 172.65 174.32 175.71 176.84 177.72 178.34 178.71 178.84 178.73 178.36 177.75 176.89 175.77 174.39 172.74 170.81 168.61 166.11 163.31 160.21 156.81 153.11 149.12 144.85 140.32 135.56 130.60 125.49 120.27 114.99 109.70 104.45 99.29 94.25 89.37 84.66 80.14 75.83 71.72 67.83 64.13 60.63 57.32 54.18 51.20 48.38 45.69 43.13 40.68 38.34 36.08 33.91 31.80 29.74 27.74 25.77 23.83 21.91 
22.09 24.18 26.29 28.44 30.62 32.85 35.14 37.50 39.93 42.46 45.09 47.84 50.70 53.70 56.85 60.15 63.61 67.25 71.06 75.04 79.20 83.53 88.02 92.65 97.41 102.26 107.17 112.10 117.02 121.88 126.65 131.27 135.72 139.97 143.99 147.76 151.27 154.51 157.47 160.16 162.57 164.72 166.59 168.20 169.55 170.65 171.51 172.11 172.48 172.61 172.49 172.14 171.54 170.70 169.62 168.28 166.68 164.82 162.69 160.30 157.62 154.68 151.45 147.96 144.20 140.20 135.97 131.54 126.93 122.19 117.35 112.46 107.55 102.66 97.84 93.11 88.51 84.05 79.75 75.62 71.67 67.90 64.31 60.89 57.63 54.54 51.59 48.77 46.09 43.52 41.06 38.69 36.41 34.20 32.05 29.96 27.91 25.90 23.92 21.96 
22.12 24.25 26.40 28.57 30.78 33.04 35.35 37.73 40.18 42.72 45.34 48.08 50.92 53.89 56.99 60.22 63.60 67.13 70.81 74.64 78.62 82.75 87.00 91.38 95.85 100.39 104.98 109.58 114.16 118.68 123.11 127.42 131.58 135.55 139.32 142.87 146.18 149.25 152.07 154.63 156.94 158.99 160.79 162.35 163.65 164.72 165.55 166.14 166.49 166.62 166.51 166.16 165.59 164.77 163.72 162.43 160.89 159.10 157.06 154.77 152.22 149.42 146.37 143.07 139.54 135.79 131.84 127.70 123.41 119.00 114.50 109.95 105.37 100.81 96.29 91.85 87.51 83.28 79.19 75.25 71.45 67.81 64.32 60.99 57.80 54.75 51.83 49.04 46.37 43.81 41.34 38.96 36.66 34.42 32.25 30.13 28.06 26.01 23.99 21.99 
22.15 24.30 26.48 28.67 30.91 33.18 35.51 37.89 40.35 42.88 45.50 48.21 51.02 53.95 56.99 60.15 63.44 66.86 70.41 74.10 77.91 81.84 85.87 90.01 94.22 98.48 102.78 107.08 111.35 115.57 119.71 123.73 127.62 131.34 134.88 138.21 141.34 144.24 146.92 149.36 151.56 153.52 155.25 156.74 158.00 159.03 159.83 160.40 160.75 160.87 160.76 160.43 159.87 159.09 158.07 156.83 155.35 153.64 151.69 149.50 147.08 144.42 141.54 138.43 135.11 131.59 127.89 124.02 120.02 115.91 111.71 107.46 103.18 98.91 94.68 90.50 86.40 82.39 78.49 74.72 71.08 67.56 64.18 60.94 57.82 54.83 51.96 49.20 46.55 43.99 41.53 39.15 36.84 34.59 32.40 30.26 28.16 26.09 24.05 22.02 
22.17 24.34 26.53 28.74 30.98 33.27 35.60 37.99 40.43 42.96 45.55 48.24 51.01 53.89 56.87 59.95 63.15 66.47 69.89 73.43 77.08 80.82 84.65 88.56 92.54 96.55 100.58 104.61 108.61 112.56 116.42 120.19 123.82 127.31 130.64 133.78 136.73 139.47 142.01 144.33 146.42 148.30 149.95 151.38 152.59 153.58 154.35 154.90 155.23 155.35 155.25 154.93 154.39 153.64 152.66 151.47 150.06 148.42 146.56 144.48 142.18 139.66 136.93 134.00 130.88 127.57 124.10 120.49 116.75 112.90 108.98 105.00 101.00 96.99 93.01 89.07 85.19 81.39 77.68 74.07 70.57 67.19 63.92 60.76 57.73 54.80 51.98 49.26 46.63 44.10 41.64 39.27 36.96 34.71 32.51 30.36 28.24 26.15 24.09 22.04 
22.18 24.36 26.56 28.78 31.03 33.31 35.64 38.02 40.46 42.96 45.53 48.18 50.91 53.73 56.64 59.65 62.76 65.96 69.26 72.66 76.15 79.72 83.36 87.07 90.82 94.60 98.39 102.17 105.93 109.62 113.25 116.78 120.19 123.46 126.59 129.55 132.33 134.92 137.32 139.52 141.52 143.31 144.88 146.25 147.41 148.36 149.09 149.62 149.94 150.05 149.96 149.65 149.14 148.42 147.48 146.34 144.99 143.43 141.66 139.68 137.50 135.12 132.54 129.78 126.83 123.73 120.47 117.09 113.58 109.98 106.31 102.58 98.82 95.06 91.31 87.59 83.91 80.30 76.77 73.32 69.96 66.70 63.54 60.48 57.52 54.66 51.89 49.22 46.63 44.12 41.69 39.32 37.02 34.77 32.57 30.41 28.29 26.19 24.12 22.05 
22.18 24.37 26.57 28.78 31.03 33.31 35.63 38.00 40.41 42.89 45.43 48.04 50.72 53.49 56.33 59.26 62.27 65.36 68.55 71.81 75.14 78.55 82.01 85.53 89.08 92.65 96.22 99.78 103.30 106.77 110.18 113.49 116.69 119.77 122.71 125.50 128.12 130.58 132.85 134.93 136.83 138.53 140.03 141.34 142.44 143.35 144.05 144.56 144.87 144.98 144.88 144.59 144.10 143.41 142.52 141.43 140.14 138.65 136.97 135.09 133.03 130.77 128.34 125.73 122.96 120.04 116.99 113.80 110.52 107.14 103.69 100.19 96.66 93.12 89.58 86.06 82.58 79.15 75.78 72.48 69.26 66.12 63.07 60.10 57.22 54.43 51.72 49.10 46.55 44.07 41.66 39.32 37.03 34.79 32.59 30.43 28.31 26.21 24.13 22.06 
22.18 24.36 26.55 28.77 31.00 33.27 35.58 37.92 40.32 42.76 45.27 47.83 50.46 53.16 55.93 58.78 61.70 64.69 67.75 70.88 74.08 77.33 80.62 83.96 87.32 90.69 94.06 97.42 100.74 104.00 107.20 110.31 113.33 116.22 118.99 121.62 124.10 126.42 128.57 130.54 132.34 133.96 135.39 136.63 137.68 138.55 139.22 139.71 140.00 140.11 140.02 139.74 139.27 138.61 137.76 136.72 135.50 134.09 132.49 130.71 128.75 126.62 124.32 121.86 119.25 116.51 113.63 110.64 107.55 104.38 101.13 97.84 94.52 91.18 87.83 84.50 81.20 77.94 74.72 71.57 68.48 65.46 62.51 59.64 56.84 54.12 51.47 48.90 46.40 43.96 41.58 39.26 36.98 34.76 32.57 30.43 28.30 26.21 24.13 22.06 
22.17 24.34 26.53 28.73 30.95 33.20 35.48 37.80 40.17 42.58 45.04 47.56 50.13 52.77 55.47 58.23 61.06 63.94 66.89 69.90 72.96 76.06 79.20 82.37 85.56 88.75 91.94 95.10 98.23 101.30 104.32 107.25 110.08 112.81 115.42 117.90 120.24 122.43 124.47 126.34 128.04 129.58 130.94 132.12 133.12 133.95 134.59 135.05 135.33 135.43 135.35 135.09 134.64 134.01 133.20 132.22 131.05 129.71 128.19 126.51 124.65 122.64 120.47 118.15 115.69 113.10 110.39 107.58 104.67 101.69 98.63 95.53 92.40 89.24 86.08 82.92 79.79 76.68 73.62 70.60 67.63 64.72 61.88 59.10 56.39 53.74 51.16 48.64 46.18 43.78 41.44 39.15 36.90 34.69 32.53 30.39 28.28 26.19 24.12 22.06 
22.15 24.31 26.48 28.66 30.87 33.10 35.35 37.65 39.98 42.35 44.76 47.23 49.75 52.32 54.94 57.62 60.36 63.14 65.98 68.87 71.80 74.76 77.76 80.77 83.80 86.82 89.84 92.82 95.78 98.68 101.52 104.28 106.96 109.53 111.99 114.33 116.54 118.61 120.54 122.31 123.92 125.38 126.67 127.80 128.75 129.54 130.15 130.59 130.86 130.95 130.87 130.62 130.20 129.60 128.83 127.90 126.79 125.52 124.08 122.48 120.73 118.82 116.77 114.58 112.26 109.82 107.27 104.62 101.88 99.07 96.19 93.27 90.30 87.32 84.33 81.33 78.35 75.39 72.47 69.58 66.73 63.93 61.19 58.50 55.87 53.30 50.78 48.32 45.92 43.56 41.26 38.99 36.78 34.59 32.45 30.33 28.23 26.16 24.10 22.05 
22.13 24.27 26.42 28.58 30.76 32.97 35.19 37.45 39.74 42.07 44.44 46.86 49.31 51.82 54.37 56.96 59.61 62.30 65.03 67.80 70.61 73.44 76.30 79.17 82.04 84.91 87.77 90.59 93.38 96.13 98.81 101.41 103.94 106.37 108.69 110.90 112.99 114.94 116.77 118.44 119.98 121.36 122.58 123.65 124.56 125.30 125.89 126.31 126.56 126.66 126.58 126.34 125.94 125.37 124.64 123.75 122.70 121.49 120.13 118.62 116.96 115.16 113.22 111.15 108.97 106.66 104.26 101.76 99.18 96.52 93.81 91.04 88.24 85.42 82.58 79.74 76.90 74.08 71.28 68.52 65.79 63.10 60.45 57.85 55.30 52.80 50.35 47.95 45.60 43.29 41.03 38.80 36.62 34.46 32.34 30.24 28.17 26.11 24.07 22.03 
22.11 24.23 26.35 28.49 30.64 32.81 35.00 37.23 39.48 41.76 44.08 46.44 48.83 51.27 53.75 56.26 58.82 61.42 64.04 66.71 69.39 72.10 74.83 77.56 80.30 83.02 85.73 88.41 91.05 93.64 96.17 98.64 101.02 103.31 105.51 107.60 109.57 111.42 113.15 114.74 116.19 117.50 118.66 119.67 120.54 121.25 121.80 122.20 122.44 122.53 122.46 122.23 121.85 121.31 120.62 119.78 118.78 117.64 116.35 114.91 113.34 111.64 109.81 107.86 105.79 103.62 101.35 98.99 96.55 94.04 91.47 88.86 86.21 83.53 80.84 78.14 75.44 72.75 70.08 67.43 64.81 62.22 59.67 57.16 54.69 52.26 49.88 47.54 45.24 42.98 40.76 38.58 36.43 34.30 32.21 30.14 28.09 26.05 24.03 22.01 
22.08 24.17 26.27 28.37 30.49 32.63 34.79 36.97 39.18 41.42 43.69 45.99 48.32 50.69 53.09 55.53 58.00 60.50 63.03 65.59 68.16 70.76 73.36 75.97 78.57 81.16 83.73 86.27 88.77 91.22 93.62 95.95 98.20 100.37 102.45 104.42 106.29 108.04 109.67 111.18 112.55 113.79 114.89 115.86 116.68 117.35 117.88 118.26 118.49 118.57 118.51 118.29 117.93 117.42 116.76 115.96 115.02 113.93 112.71 111.36 109.87 108.26 106.53 104.68 102.73 100.68 98.53 96.30 94.00 91.63 89.20 86.73 84.21 81.67 79.12 76.55 73.97 71.41 68.85 66.31 63.80 61.31 58.85 56.43 54.04 51.68 49.37 47.09 44.85 42.64 40.46 38.32 36.21 34.12 32.06 30.02 27.99 25.98 23.98 21.99 
22.05 24.11 26.18 28.25 30.33 32.44 34.56 36.70 38.86 41.05 43.26 45.50 47.78 50.08 52.41 54.77 57.15 59.57 62.00 64.46 66.93 69.41 71.89 74.38 76.86 79.32 81.76 84.17 86.55 88.87 91.14 93.34 95.48 97.53 99.49 101.36 103.13 104.79 106.33 107.76 109.06 110.23 111.28 112.19 112.97 113.61 114.11 114.47 114.69 114.77 114.71 114.51 114.17 113.68 113.06 112.30 111.41 110.38 109.22 107.94 106.53 105.01 103.37 101.62 99.78 97.84 95.81 93.70 91.52 89.28 86.98 84.64 82.25 79.84 77.41 74.96 72.51 70.06 67.62 65.18 62.77 60.38 58.01 55.67 53.35 51.07 48.82 46.61 44.42 42.26 40.14 38.04 35.96 33.91 31.89 29.88 27.88 25.90 23.93 21.96 
22.02 24.04 26.07 28.11 30.16 32.22 34.30 36.40 38.51 40.65 42.81 45.00 47.21 49.44 51.70 53.98 56.29 58.61 60.96 63.31 65.68 68.06 70.43 72.81 75.17 77.51 79.84 82.13 84.38 86.58 88.73 90.82 92.84 94.78 96.64 98.41 100.08 101.65 103.12 104.47 105.70 106.82 107.81 108.68 109.41 110.02 110.50 110.84 111.05 111.13 111.07 110.88 110.55 110.09 109.50 108.78 107.94 106.96 105.87 104.65 103.32 101.88 100.33 98.68 96.93 95.09 93.18 91.18 89.12 86.99 84.81 82.59 80.33 78.04 75.72 73.39 71.05 68.71 66.37 64.04 61.73 59.42 57.14 54.88 52.65 50.44 48.25 46.10 43.97 41.86 39.79 37.73 35.70 33.69 31.70 29.72 27.76 25.81 23.87 21.93 
21.99 23.97 25.97 27.97 29.98 32.00 34.03 36.08 38.15 40.24 42.34 44.47 46.62 48.78 50.97 53.18 55.40 57.65 59.90 62.17 64.44 66.71 68.99 71.25 73.50 75.74 77.95 80.12 82.26 84.36 86.40 88.38 90.29 92.13 93.89 95.57 97.15 98.64 100.02 101.31 102.48 103.53 104.47 105.30 106.00 106.57 107.03 107.35 107.55 107.62 107.57 107.39 107.08 106.64 106.09 105.40 104.60 103.68 102.64 101.49 100.23 98.86 97.40 95.84 94.18 92.44 90.63 88.74 86.78 84.77 82.70 80.59 78.44 76.26 74.06 71.84 69.61 67.37 65.13 62.90 60.67 58.46 56.26 54.08 51.92 49.78 47.66 45.56 43.49 41.44 39.41 37.41 35.42 33.45 31.50 29.56 27.63 25.71 23.81 21.90 
21.95 23.90 25.85 27.81 29.78 31.76 33.75 35.75 37.77 39.80 41.86 43.92 46.01 48.11 50.23 52.36 54.51 56.67 58.84 61.02 63.20 65.38 67.55 69.72 71.87 74.00 76.10 78.17 80.20 82.19 84.13 86.01 87.82 89.57 91.24 92.82 94.33 95.74 97.05 98.26 99.37 100.38 101.27 102.05 102.71 103.26 103.69 104.00 104.19 104.26 104.21 104.04 103.74 103.33 102.80 102.16 101.40 100.52 99.54 98.45 97.26 95.96 94.57 93.09 91.53 89.88 88.16 86.37 84.51 82.60 80.64 78.64 76.60 74.52 72.42 70.31 68.17 66.03 63.89 61.75 59.61 57.48 55.36 53.26 51.17 49.10 47.04 45.01 43.00 41.00 39.02 37.06 35.12 33.19 31.28 29.38 27.49 25.61 23.74 21.87 
21.91 23.82 25.73 27.65 29.58 31.51 33.45 35.41 37.38 39.36 41.36 43.36 45.39 47.43 49.48 51.54 53.61 55.69 57.78 59.87 61.96 64.05 66.13 68.20 70.26 72.29 74.29 76.26 78.20 80.09 81.92 83.71 85.43 87.09 88.67 90.18 91.60 92.94 94.18 95.33 96.39 97.34 98.18 98.92 99.56 100.08 100.48 100.78 100.96 101.02 100.98 100.81 100.54 100.15 99.65 99.03 98.31 97.49 96.55 95.52 94.39 93.17 91.85 90.45 88.96 87.40 85.77 84.07 82.31 80.50 78.64 76.73 74.79 72.81 70.81 68.79 66.76 64.71 62.66 60.60 58.55 56.50 54.46 52.43 50.41 48.41 46.42 44.44 42.49 40.54 38.62 36.71 34.81 32.93 31.06 29.20 27.35 25.50 23.67 21.83 
21.87 23.74 25.61 27.48 29.36 31.25 33.15 35.06 36.98 38.90 40.84 42.80 44.76 46.73 48.72 50.71 52.71 54.72 56.72 58.73 60.74 62.74 64.74 66.71 68.68 70.61 72.52 74.40 76.24 78.04 79.79 81.48 83.12 84.69 86.19 87.62 88.97 90.24 91.42 92.52 93.51 94.42 95.22 95.92 96.52 97.01 97.40 97.68 97.85 97.92 97.87 97.72 97.46 97.09 96.61 96.03 95.35 94.56 93.68 92.70 91.63 90.47 89.22 87.89 86.49 85.01 83.46 81.85 80.18 78.45 76.68 74.87 73.02 71.14 69.23 67.30 65.36 63.40 61.43 59.46 57.49 55.52 53.55 51.59 49.64 47.71 45.78 43.86 41.96 40.08 38.20 36.34 34.49 32.65 30.82 29.00 27.19 25.39 23.59 21.79 
21.82 23.65 25.48 27.31 29.15 30.99 32.84 34.70 36.57 38.44 40.33 42.22 44.12 46.03 47.95 49.88 51.81 53.74 55.67 57.60 59.53 61.45 63.36 65.25 67.12 68.97 70.80 72.59 74.34 76.05 77.71 79.32 80.88 82.37 83.80 85.16 86.44 87.64 88.76 89.80 90.75 91.60 92.37 93.03 93.60 94.07 94.44 94.70 94.87 94.93 94.89 94.74 94.49 94.14 93.69 93.14 92.49 91.75 90.91 89.99 88.97 87.87 86.69 85.43 84.09 82.69 81.22 79.69 78.10 76.46 74.78 73.05 71.29 69.50 67.68 65.84 63.98 62.10 60.22 58.32 56.43 54.53 52.64 50.75 48.87 47.00 45.13 43.28 41.43 39.60 37.77 35.96 34.16 32.37 30.58 28.81 27.04 25.27 23.51 21.76 
21.78 23.56 25.35 27.14 28.93 30.72 32.53 34.33 36.15 37.97 39.80 41.64 43.48 45.33 47.19 49.05 50.91 52.77 54.63 56.49 58.33 60.18 62.00 63.81 65.61 67.37 69.11 70.82 72.49 74.12 75.70 77.23 78.71 80.13 81.48 82.77 83.99 85.13 86.20 87.18 88.08 88.90 89.62 90.25 90.79 91.24 91.59 91.84 92.00 92.05 92.01 91.88 91.64 91.31 90.88 90.36 89.75 89.04 88.25 87.37 86.41 85.36 84.24 83.04 81.78 80.44 79.05 77.59 76.09 74.53 72.93 71.28 69.60 67.89 66.16 64.40 62.62 60.82 59.02 57.20 55.38 53.56 51.73 49.91 48.10 46.29 44.48 42.68 40.89 39.11 37.34 35.58 33.82 32.08 30.34 28.60 26.88 25.15 23.43 21.72 
21.74 23.48 25.21 26.96 28.70 30.45 32.21 33.97 35.73 37.50 39.28 41.06 42.84 44.63 46.42 48.22 50.01 51.81 53.60 55.38 57.16 58.92 60.67 62.41 64.12 65.81 67.47 69.10 70.69 72.24 73.75 75.20 76.61 77.96 79.25 80.47 81.63 82.72 83.73 84.66 85.52 86.29 86.98 87.58 88.09 88.51 88.84 89.09 89.23 89.29 89.25 89.12 88.90 88.59 88.18 87.69 87.10 86.44 85.68 84.85 83.93 82.94 81.88 80.74 79.54 78.27 76.95 75.57 74.13 72.65 71.12 69.56 67.96 66.33 64.67 62.98 61.28 59.56 57.83 56.09 54.34 52.59 50.83 49.08 47.32 45.57 43.83 42.09 40.35 38.62 36.90 35.19 33.48 31.78 30.09 28.40 26.71 25.03 23.35 21.68 
21.69 23.39 25.08 26.78 28.48 30.18 31.88 33.59 35.31 37.03 38.75 40.47 42.20 43.93 45.66 47.39 49.12 50.85 52.57 54.29 55.99 57.69 59.37 61.03 62.66 64.28 65.86 67.42 68.94 70.41 71.85 73.24 74.58 75.86 77.09 78.25 79.35 80.38 81.34 82.23 83.04 83.78 84.43 85.00 85.49 85.89 86.21 86.43 86.58 86.63 86.59 86.47 86.26 85.96 85.58 85.11 84.56 83.92 83.21 82.42 81.55 80.61 79.60 78.52 77.38 76.17 74.91 73.60 72.23 70.82 69.37 67.88 66.35 64.79 63.21 61.60 59.97 58.32 56.66 54.99 53.31 51.62 49.93 48.24 46.55 44.86 43.17 41.49 39.81 38.13 36.46 34.80 33.14 31.48 29.83 28.19 26.54 24.90 23.27 21.63 
21.65 23.30 24.95 26.60 28.25 29.90 31.56 33.22 34.89 36.55 38.22 39.89 41.56 43.24 44.91 46.58 48.25 49.91 51.57 53.21 54.85 56.48 58.08 59.67 61.24 62.79 64.30 65.78 67.23 68.64 70.01 71.33 72.61 73.83 75.00 76.10 77.15 78.13 79.04 79.89 80.66 81.36 81.98 82.52 82.98 83.36 83.66 83.88 84.02 84.07 84.03 83.92 83.72 83.44 83.07 82.63 82.10 81.50 80.82 80.07 79.25 78.36 77.39 76.37 75.28 74.14 72.94 71.69 70.39 69.05 67.66 66.24 64.78 63.30 61.78 60.24 58.68 57.11 55.51 53.91 52.29 50.67 49.05 47.41 45.78 44.15 42.52 40.89 39.26 37.64 36.02 34.40 32.79 31.18 29.57 27.97 26.37 24.78 23.18 21.59 
21.60 23.21 24.81 26.41 28.02 29.63 31.24 32.85 34.46 36.08 37.69 39.31 40.93 42.54 44.16 45.77 47.38 48.98 50.57 52.16 53.73 55.29 56.83 58.35 59.85 61.33 62.78 64.19 65.58 66.92 68.23 69.49 70.70 71.86 72.97 74.03 75.02 75.96 76.83 77.63 78.36 79.02 79.61 80.13 80.57 80.93 81.22 81.43 81.55 81.60 81.57 81.46 81.27 81.00 80.66 80.24 79.74 79.17 78.53 77.81 77.03 76.18 75.27 74.29 73.26 72.17 71.03 69.84 68.60 67.32 66.00 64.65 63.26 61.84 60.39 58.92 57.42 55.91 54.38 52.84 51.29 49.73 48.17 46.59 45.02 43.44 41.87 40.29 38.72 37.14 35.57 34.00 32.44 30.88 29.32 27.76 26.21 24.65 23.10 21.55 
21.56 23.12 24.67 26.23 27.79 29.35 30.92 32.48 34.04 35.61 37.17 38.74 40.30 41.86 43.42 44.97 46.52 48.06 49.60 51.12 52.63 54.13 55.60 57.06 58.50 59.91 61.30 62.65 63.97 65.25 66.50 67.70 68.85 69.96 71.02 72.02 72.97 73.86 74.68 75.45 76.15 76.78 77.34 77.83 78.25 78.59 78.86 79.06 79.18 79.23 79.20 79.10 78.92 78.66 78.33 77.93 77.46 76.92 76.31 75.63 74.89 74.08 73.21 72.29 71.30 70.27 69.18 68.05 66.87 65.65 64.39 63.10 61.77 60.41 59.03 57.62 56.19 54.74 53.27 51.80 50.31 48.81 47.30 45.78 44.27 42.75 41.22 39.70 38.18 36.65 35.13 33.61 32.09 30.57 29.06 27.55 26.03 24.52 23.02 21.51 
21.51 23.03 24.54 26.05 27.57 29.08 30.60 32.11 33.63 35.14 36.65 38.17 39.68 41.18 42.69 44.19 45.68 47.16 48.64 50.10 51.55 52.99 54.40 55.80 57.18 58.53 59.85 61.15 62.41 63.63 64.82 65.96 67.07 68.12 69.13 70.09 70.99 71.83 72.62 73.34 74.01 74.61 75.14 75.61 76.01 76.34 76.59 76.78 76.90 76.94 76.92 76.82 76.65 76.41 76.10 75.71 75.27 74.75 74.17 73.53 72.82 72.05 71.23 70.35 69.41 68.43 67.39 66.31 65.19 64.02 62.82 61.59 60.32 59.02 57.70 56.35 54.98 53.59 52.19 50.77 49.34 47.89 46.44 44.98 43.52 42.05 40.58 39.11 37.64 36.16 34.69 33.22 31.74 30.27 28.80 27.33 25.86 24.40 22.93 21.47 
21.47 22.94 24.40 25.87 27.34 28.81 30.28 31.74 33.21 34.68 36.14 37.60 39.06 40.52 41.97 43.41 44.85 46.28 47.70 49.10 50.50 51.87 53.23 54.57 55.89 57.18 58.45 59.68 60.89 62.06 63.19 64.29 65.34 66.34 67.30 68.21 69.07 69.88 70.62 71.32 71.95 72.52 73.03 73.47 73.85 74.16 74.41 74.59 74.70 74.74 74.71 74.62 74.46 74.23 73.94 73.58 73.15 72.66 72.11 71.49 70.82 70.09 69.31 68.47 67.58 66.64 65.66 64.63 63.56 62.45 61.30 60.12 58.91 57.67 56.40 55.11 53.80 52.47 51.12 49.76 48.38 47.00 45.60 44.20 42.79 41.37 39.95 38.53 37.10 35.68 34.25 32.83 31.40 29.97 28.55 27.12 25.70 24.27 22.85 21.42 
21.42 22.85 24.27 25.69 27.12 28.54 29.96 31.38 32.80 34.22 35.63 37.05 38.46 39.86 41.26 42.65 44.03 45.41 46.77 48.13 49.46 50.78 52.09 53.37 54.63 55.87 57.08 58.26 59.42 60.53 61.61 62.66 63.66 64.62 65.53 66.40 67.22 67.99 68.70 69.36 69.96 70.50 70.99 71.41 71.77 72.07 72.30 72.47 72.58 72.62 72.59 72.51 72.35 72.14 71.86 71.51 71.11 70.64 70.12 69.53 68.90 68.20 67.45 66.66 65.81 64.92 63.98 63.00 61.98 60.92 59.82 58.69 57.54 56.35 55.14 53.90 52.65 51.37 50.08 48.77 47.45 46.11 44.77 43.42 42.06 40.70 39.33 37.95 36.58 35.20 33.82 32.44 31.06 29.67 28.29 26.91 25.53 24.14 22.76 21.38 
21.38 22.76 24.14 25.52 26.90 28.27 29.65 31.02 32.40 33.77 35.14 36.50 37.86 39.21 40.56 41.90 43.24 44.56 45.87 47.17 48.45 49.72 50.97 52.20 53.41 54.60 55.75 56.88 57.98 59.05 60.09 61.08 62.04 62.95 63.83 64.65 65.43 66.16 66.84 67.47 68.04 68.56 69.02 69.42 69.76 70.05 70.27 70.43 70.53 70.57 70.55 70.47 70.32 70.12 69.85 69.52 69.14 68.70 68.20 67.64 67.03 66.37 65.66 64.90 64.10 63.25 62.35 61.42 60.44 59.43 58.39 57.31 56.20 55.07 53.91 52.73 51.52 50.30 49.06 47.80 46.53 45.25 43.96 42.66 41.35 40.03 38.71 37.39 36.06 34.72 33.39 32.05 30.72 29.38 28.04 26.70 25.36 24.02 22.68 21.34 