# vtk DataFile Version 2.0
Function: z = f(x,y,z)
ASCII
DATASET STRUCTURED_POINTS
DIMENSIONS 30 30 1
ORIGIN 0 0 0
SPACING 0.05 0.05 0.05
POINT_DATA 900
SCALARS density float
LOOKUP_TABLE default
0.0680002949498
0.13277994445
0.197230486492
0.260371320636
0.321162298744
0.378573569486
0.431657981254
0.479614682073
0.521834017023
0.557916985226
0.5876668339
0.611055090911
0.628168653992
0.639147719031
0.644125795626
0.643182573392
0.636318052329
0.623452542823
0.604452535274
0.579177833795
0.547541540653
0.509572127982
0.465466348565
0.415623203278
0.360652347042
0.301354631832
0.238677209256
0.173649930645
0.107312944135
0.040646850167
0.13803760848
0.20195996729
0.267065980121
0.331834725041
0.394527283903
0.453381139566
0.506812845342
0.553595041744
0.592978273035
0.624737530877
0.649136387109
0.666815736668
0.678627107627
0.68543997274
0.687956878041
0.68656873279
0.681275536987
0.671686381373
0.657098719913
0.636643079852
0.609467933118
0.574932384776
0.532772862983
0.483214376079
0.427006379802
0.365376233638
0.299907384274
0.232362348852
0.16448004552
0.0977813962085
0.207719832384
0.27241709052
0.339810764158
0.407839609874
0.474065939509
0.53599457011
0.591405759912
0.638645641915
0.676824959566
0.705892697063
0.726572750872
0.740175382997
0.748316751852
0.752595607056
0.754283531081
0.754082652832
0.751992972307
0.747312360604
0.73876923525
0.724764846626
0.703683036318
0.674213542322
0.635632468172
0.587990829669
0.532177883369
0.469847496268
0.403219410134
0.33478880792
0.266993377782
0.201894363146
0.275988950397
0.342510319427
0.413240865438
0.485579023515
0.556388335487
0.622440952593
0.680880837987
0.729627617157
0.767652232733
0.795077661453
0.813088124404
0.823663250661
0.829183828978
0.83197788584
0.833886040155
0.835921640472
0.838084686792
0.839361830565
0.837912452884
0.831408527262
0.817469264946
0.794115036862
0.760161621921
0.715486043386
0.661117358627
0.599135942156
0.532397830819
0.464130873377
0.397471528001
0.335021359607
0.341722697424
0.410363452849
0.484726146735
0.561668892674
0.637356462486
0.707828341599
0.769592198086
0.820141149925
0.858306338928
0.884384734371
0.900020881966
0.907863777857
0.911058841137
0.912663375158
0.915087035265
0.919654389651
0.926365438317
0.933895613068
0.939835258561
0.941127071443
0.934625632621
0.91768194595
0.88865146572
0.847237222654
0.794608074939
0.733270904599
0.666718043559
0.598910006393
0.533682021279
0.474175974628
0.403809918084
0.474074827556
0.55157443697
0.632626538425
0.71269713373
0.787093042502
0.851685637736
0.903541529897
0.94135205998
0.9655881898
0.978354789692
0.98297022287
0.983344538765
0.9832643176
0.985708251151
0.992312127259
1.00307594592
1.01636391931
1.02919735563
1.03778967467
1.03823082699
1.02720244939
1.00259967152
0.963951531576
0.912566688557
0.851378532002
0.784515688914
0.716671339675
0.652379482477
0.595322325222
0.461228685639
0.531935987911
0.611390751605
0.695370447329
0.778642306879
0.855780484063
0.922020056797
0.974001128031
1.01027523795
1.0314873409
1.04020263184
1.04040884105
1.03678064832
1.03383391072
1.03511635647
1.04257499305
1.05620982047
1.07407383123
1.09261929713
1.10733036108
1.1135323433
1.10723751352
1.08588067677
1.0488168787
0.997494579131
0.935273675113
0.866919088728
0.79785666617
0.73331917564
0.677529146533
0.51311492296
0.582622677626
0.662390655195
0.74765600478
0.83248718817
0.910725693359
0.976970303186
1.02743461309
1.06053036243
1.0770764981
1.08009853969
1.07425358454
1.06498094277
1.05752574832
1.05600476586
1.06267622251
1.07754011828
1.09833822602
1.12095378109
1.14014164954
1.15046252126
1.14725929889
1.12750646285
1.09038506625
1.03748336972
0.972587777836
0.901099507748
0.829177071463
0.762752007197
0.706587165832
0.558810844475
0.625326273406
0.70361468672
0.788372912039
0.872970641139
0.950516696204
1.014973565
1.06212833544
1.09025294608
1.10034033634
1.09587635044
1.0821874528
1.06547758386
1.05172115445
1.04560396565
1.04969546424
1.06399565022
1.08593507681
1.11082794293
1.13269983775
1.14534682083
1.14344242775
1.12350081429
1.08452904102
1.02825516941
0.958892111528
0.882477379608
0.805902151469
0.735796735335
0.677464303584
0.597885949237
0.659804003095
0.735007802816
0.817653854531
0.900413080003
0.975661635607
1.03672571403
1.07896589567
1.10051431827
1.10253791379
1.08898285107
1.06584496159
1.04009281614
1.01843010242
1.00611165795
1.00601814914
1.018149576
1.0396252721
1.06519039993
1.08814127179
1.1015093169
1.09929870376
1.07756326354
1.03513606428
0.973884968244
0.898449395023
0.815503151934
0.732670082602
0.657279265264
0.595174193788
0.630127951349
0.686340246838
0.757351049669
0.836776544482
0.91658888303
0.988431555877
1.04499446062
1.08121167017
1.09507552143
1.08792693892
1.06417241607
1.03047715146
0.994574346219
0.963896964894
0.944268881448
0.938881981944
0.947736266383
0.967639848699
0.992768854936
1.01569032054
1.02867104437
1.02504582788
1.00040817761
0.953417169058
0.886080465302
0.803463993448
0.712877855892
0.622678562072
0.540893960232
0.473907865735
0.655506130877
0.705626496538
0.772058131022
0.847876897476
0.924356177641
0.992406796271
1.04408235589
1.07389042188
1.07968353035
1.06297659834
1.02863644391
0.983997632715
0.937557996211
0.897479775824
0.870155881947
0.85908942029
0.864280390852
0.882225687924
0.906532401113
0.929038288995
0.941245520104
0.935819528805
0.907893497022
0.855952507714
0.78214402478
0.691960482835
0.593348279355
0.495396589587
0.406832031788
0.334578742811
0.674114245902
0.71858150617
0.780872796741
0.853523659269
0.927108705487
0.991806094335
1.03903313326
1.06287088013
1.06103207024
1.03520561316
0.990718651593
0.935575118242
0.879037474914
0.829997239898
0.795416360025
0.779109160648
0.781075641768
0.797501478031
0.821424722605
0.843953857204
0.855826420019
0.849038478345
0.818262889485
0.761810743858
0.68196930618
0.584657518578
0.478458073608
0.373192812327
0.278287123002
0.201205463981
0.686103560408
0.726143391073
0.785520013521
0.856228647915
0.928145135975
0.990714970832
1.03471916485
1.0538122684
1.04556721594
1.01184690958
0.958438816661
0.894016236946
0.828606262584
0.771829688731
0.731217498652
0.710895237347
0.710862904816
0.726994956059
0.751760407811
0.775538464916
0.788302035227
0.78137781897
0.748978348823
0.689240722668
0.604592006036
0.501377648569
0.388816637899
0.277463480895
0.177442335837
0.0967579825611
0.691618124224
0.729070161443
0.787371751924
0.857977794339
0.930065360397
0.992347277419
1.03496826269
1.05115635907
1.03834470019
0.998570180717
0.938080592598
0.866218602675
0.793775933435
0.731102656899
0.68629879277
0.663801105693
0.663609595666
0.681287498046
0.708734793131
0.735601408898
0.751095622861
0.745874768176
0.713691052899
0.652507582371
0.564891222941
0.457613931764
0.34053099155
0.22492957498
0.121632610343
0.0391851989687
0.690743918251
0.727783587796
0.787185572083
0.859864448292
0.934298518121
0.99846794308
1.04188114538
1.05733966035
1.04213682083
0.998483514016
0.933087856472
0.855961882114
0.778661943769
0.712267390324
0.665447277918
0.64294959084
0.644774329091
0.66617350838
0.69847807257
0.730608672772
0.751008956161
0.749666888821
0.719874354185
0.659420465057
0.571011888603
0.461847089488
0.342417645503
0.224743395139
0.120346036696
0.0383109929958
0.683480942489
0.722283670132
0.784961473998
0.861888609774
0.940844609147
1.00907696782
1.05545781291
1.07236217226
1.05694357787
1.01158690948
0.943460608284
0.863246075265
0.783264293586
0.715323889005
0.668662954094
0.648340692789
0.654357105089
0.681652987061
0.720990246129
0.760560256539
0.788042035125
0.792754180903
0.767528252681
0.709979370727
0.62295400302
0.514077121741
0.394476599758
0.276904941372
0.173582614896
0.0941353646425
0.669743216038
0.712148637935
0.779941897536
0.862956929034
0.948274494106
1.02240942264
1.07359754669
1.09378738656
1.07999267346
1.03477227966
0.965754970965
0.884291515439
0.803467526583
0.735820907021
0.691158785762
0.674851586385
0.686899308891
0.7219315297
0.770141119803
0.818990176576
0.855393086516
0.867999081567
0.849179395915
0.796375157289
0.712572634486
0.605823307198
0.487891343372
0.372261913121
0.271854254767
0.196834434117
0.649386689067
0.696620481009
0.770754872135
0.861083475146
0.953988281709
1.0352514559
1.09247253469
1.11717353089
1.10622837486
1.06236993143
0.993687291033
0.912200588791
0.831760068549
0.765632909796
0.724195277979
0.713128816322
0.732433524824
0.776427760262
0.834735357189
0.894089136116
0.9406388532
0.962364373315
0.951176606025
0.904342686518
0.824988684409
0.721592586903
0.606554857025
0.494093330699
0.397826016258
0.328459301001
0.622260097593
0.674761084015
0.7556754311
0.853756430058
0.954687302546
1.04351754683
1.1072104048
1.13686138175
1.12920460723
1.08714693861
1.01923779094
0.938166666418
0.858548439224
0.794379565716
0.756605247775
0.751218348271
0.778218867204
0.831613941704
0.900458369891
0.970755695406
1.02789104407
1.05917491368
1.05605788919
1.01563311323
0.941166456253
0.841562412963
0.729857741468
0.621002943502
0.529314797409
0.46604001198
0.588269683535
0.645651692978
0.732959824565
0.838407048012
0.946977814966
1.04298895788
1.11276742357
1.14698220981
1.14222764536
1.10158458008
1.03406275368
0.953021035421
0.873838929817
0.811242170095
0.776744994572
0.776651485764
0.810961643669
0.873371385774
0.952366473761
1.03322117441
1.10055598319
1.14101203084
1.14557957769
1.11117777383
1.04121229052
0.945014129986
0.836256345415
0.730622104351
0.643126955147
0.585557928087
0.547446166828
0.608600815995
0.701194348786
0.812899413426
0.928001691549
1.0300853498
1.10484103992
1.14251125216
1.13955051445
1.09921366924
1.03097078081
0.94885008551
0.868995718199
0.806862688966
0.774534272565
0.778625771154
0.819137184736
0.889453211149
0.97749057564
1.06779426812
1.14422015373
1.19273999612
1.203883731
1.17439651595
1.10782382301
1.01392316194
0.907003880995
0.803481813535
0.719071277924
0.666099625937
0.500001833367
0.563324072921
0.659597957579
0.775955814074
0.895984554029
1.00253567828
1.08066354348
1.12018413238
1.1174121721
1.07577649759
1.0052074978
0.92040277613
0.838271097774
0.774996749693
0.743232043075
0.749903499726
0.795011119645
0.871628381028
0.967102972686
1.06525060766
1.14916252075
1.20414110856
1.22025598214
1.19407830654
1.12929335464
1.03608514369
0.929399317041
0.826384373848
0.743453402491
0.693474076239
0.4463671841
0.510064235912
0.608225694307
0.727443564528
0.850605988186
0.959831800304
1.03953906246
1.07911724989
1.0747412889
1.03001400699
0.955326117703
0.866044591526
0.779842823996
0.713634378937
0.680640603974
0.688099240557
0.736010288685
0.817136006909
0.918255047604
1.02245384695
1.11205900939
1.17170356447
1.19099679863
1.16633588437
1.10154589537
1.00723735642
0.898992205927
0.794691608872
0.711447423641
0.662667644995
0.387200004599
0.449629928262
0.54803701999
0.66847296353
0.793127130484
0.903385690065
0.983030408776
1.02102425433
1.01340235222
0.963941522488
0.883492803306
0.788092532219
0.69617873511
0.625394252667
0.589529468952
0.596133345061
0.645205880991
0.72919811565
0.834319664977
0.942927688279
1.03658415968
1.09925274163
1.12008239595
1.09529630261
1.02885933612
0.931808528756
0.820362114018
0.713133922695
0.627934583184
0.578712411737
0.323364371994
0.383345406261
0.480816370073
0.601288625685
0.726252774688
0.836362320485
0.914762734498
0.949990476932
0.93794087246
0.882564733658
0.795173423329
0.692472646086
0.593665058148
0.517122777075
0.477205223361
0.481772577747
0.530824840233
0.61650183008
0.72444412679
0.836279612806
0.932805631908
0.997316479482
1.01850079273
0.992407759066
0.923142053825
0.822167216801
0.70633777657
0.59500022973
0.506663974692
0.455817649197
0.255882213021
0.312919125545
0.408958729094
0.528972064431
0.653750963137
0.763216262802
0.839877139772
0.871843546737
0.854871007554
0.793084327339
0.698255193516
0.587758677769
0.481562066657
0.398766754605
0.354301198546
0.356336798863
0.404873555558
0.491740068245
0.602007879992
0.716575596374
0.815475930832
0.881333811682
0.9023775515
0.874482345171
0.801892668836
0.696498569806
0.575790871735
0.459848737033
0.36788033412
0.314914622231
0.185864683062
0.240252749345
0.335156268132
0.455005958696
0.579894882606
0.689011211641
0.764227827069
0.793228174067
0.771627975675
0.703726029548
0.601754347732
0.483757368983
0.370467010199
0.281713942671
0.232995659767
0.232794781518
0.281111307922
0.369462618951
0.482351221237
0.599946443486
0.701516368803
0.76901655843
0.790215000323
0.760812896827
0.6851945249
0.575676439365
0.450385758956
0.330134311893
0.234829036607
0.180039213825
0.114434047212
0.16722247882
0.262039124412
0.382774381769
0.508822542449
0.61863911242
0.693460677872
0.720544176468
0.695365530433
0.62239752996
0.514332511718
0.389884281533
0.270549386642
0.176887775204
0.124965977022
0.123577831771
0.172723339451
0.263608660389
0.380167264778
0.501839204462
0.607127932202
0.677319642173
0.699721997707
0.669862208609
0.592264352656
0.479671492183
0.350847041002
0.227335493144
0.12974255705
0.0741778349409
0.0426483217365
0.0954693086866
0.191831271102
0.31508428527
0.443923872737
0.556072873663
0.632131579156
0.658930419369
0.631805515709
0.555403650908
0.442877486258
0.313610194655
0.189862953675
0.0929249883441
0.0394318649018
0.0384886426679
0.0900953216424
0.185146842506
0.307007639018
0.434388486153
0.545028206335
0.619543626669
0.64478208586
0.61609680118
0.538151651219
0.424116205825
0.29339017389
0.168250715255
0.0700023083716
0.0152948769536
