# vtk DataFile Version 2.0
Function: z = f(x,y,z)
ASCII
DATASET STRUCTURED_POINTS
DIMENSIONS 30 30 1
ORIGIN 0 0 0
SPACING 0.05 0.05 0.05
POINT_DATA 900
SCALARS density float
LOOKUP_TABLE default
0.0938231917662
0.263065959247
0.431459975914
0.596476324842
0.755432518732
0.905672625205
1.04475399011
1.17061125836
1.281672162
1.37690769877
1.45581045359
1.51830699833
1.56462143768
1.59511532945
1.61013298785
1.60987992823
1.59435615057
1.56335613956
1.51653558097
1.45353291698
1.37412404291
1.27838238689
1.16681536401
1.04045197651
0.900864492354
0.750118266634
0.590655953497
0.425133485321
0.256233349407
0.0864844626781
0.110593702391
0.278653625754
0.449766130541
0.620008839137
0.784897173162
0.939885693674
1.080890775
1.20474712163
1.30952192666
1.39463490542
1.46076579582
1.50956743217
1.54323586055
1.56401340543
1.57371189606
1.57333946684
1.56289611779
1.54137371448
1.50696042767
1.45741393289
1.39053818407
1.30468034688
1.19916068343
1.07455947837
0.932809538615
0.777076159676
0.611442967224
0.4404554002
0.268598036986
0.0997932551961
0.127268945067
0.294583928951
0.468852826497
0.644759799401
0.8160181782
0.976193017389
1.11955971978
1.24185304942
1.34077966047
1.41620798587
1.47000491649
1.50554954908
1.52700987113
1.53850897377
1.54332620126
1.54327230709
1.53834729127
1.52674040031
1.50517228993
1.469519869
1.41561515006
1.34007903634
1.24104463695
1.11864351898
0.975169028263
0.814886400745
0.643520233617
0.467505472384
0.293128786509
0.125706014296
0.143565061773
0.310416601964
0.488123388055
0.669976121052
0.847886040411
1.01352869406
1.1595385133
1.28055032175
1.37391023461
1.43993540242
1.48167986904
1.50424899366
1.51378270517
1.51628486135
1.51650232149
1.51704845816
1.51792327136
1.51651338853
1.50807195036
1.48659509908
1.4459429058
1.38101001133
1.28874237181
1.1688228367
1.0239052908
0.859354910493
0.682537264475
0.501776804819
0.325162292069
0.159403025219
0.159180956994
0.325648273749
0.506872168642
0.694749881988
0.879390562165
1.05058025054
1.19931240688
1.31912191438
1.40699434931
1.4636955798
1.49346680268
1.50313963959
1.50082596081
1.49441039079
1.49010730383
1.49133269159
1.49808655408
1.50695289962
1.51171735392
1.50449529254
1.47717484519
1.42292439022
1.33750273082
1.22014399883
1.07386261802
0.905123705171
0.722933800519
0.537506862696
0.358733743328
0.194717202097
0.173818515873
0.339768741976
0.524376878456
0.718146704937
0.909385278715
1.08598913459
1.23731076082
1.35578510017
1.43803718996
1.4852816159
1.50294672783
1.4995904098
1.48529647353
1.46983031009
1.46087380882
1.46264558046
1.47514562501
1.49415533172
1.51199281128
1.51889267258
1.50477110393
1.46107022126
1.38236167475
1.26743087868
1.11965279573
0.94659248313
0.758897452629
0.568671169425
0.387606576223
0.225199893398
0.187203562943
0.352319640499
0.53999496067
0.73933984239
0.936859251875
1.11856021736
1.27215425558
1.38897636888
1.46529105562
1.50276161914
1.50800356221
1.49130103136
1.46470977969
1.43987596494
1.42594899146
1.42795008908
1.4458792578
1.47471526778
1.5053087147
1.52601344078
1.52477369295
1.49130532468
1.41899283318
1.30617291512
1.15658107213
0.978882301889
0.785365087644
0.590022401163
0.406349276232
0.245235393915
0.199104272634
0.362945681046
0.553247664311
0.757727080674
0.961086805267
1.14744435976
1.30287028938
1.41759965603
1.48753641914
1.51479259962
1.50717085324
1.47668158897
1.4373525013
1.40271051465
1.38337254836
1.38516245137
1.40808022366
1.44630201632
1.48921091
1.52327998028
1.53448153266
1.51080515819
1.44444820109
1.33329864045
1.18145251684
0.998674768348
0.798894849762
0.597995239408
0.41127306215
0.251011459746
0.209344165889
0.371429915903
0.563877573008
0.773010534758
0.981729585208
1.17226273946
1.32903957122
1.44119520197
1.50427305218
1.52083386038
1.4998674353
1.45511044835
1.40256253544
1.35763138762
1.33240143928
1.33349915841
1.36092454502
1.40805113111
1.46279448229
1.5097469075
1.53290877085
1.51854340092
1.45766098898
1.3477007965
1.19311940301
1.00478168702
0.798258074838
0.591320551355
0.401068332518
0.241178020772
0.217807742453
0.377707211076
0.571869919029
0.785225803174
0.998873556486
1.1931516875
1.35084879841
1.46000007027
1.51578838459
1.52122319751
1.48648147073
1.42702613812
1.36082877696
1.30517784499
1.2736252916
1.27360020387
1.3051025818
1.36070333832
1.42685052401
1.48625568117
1.52094723249
1.51546224411
1.45962375433
1.35042230702
1.19267502065
0.998346714174
0.784648785405
0.571242725801
0.37702984239
0.217080198309
0.224438047576
0.381853863679
0.57743425135
0.794715686762
1.01299477181
1.21072050846
1.36904052739
1.47489006922
1.52309147653
1.51710292304
1.46828852344
1.39383747403
1.3136932935
1.24702520625
1.20885267667
1.20740741095
1.24268940908
1.3064669649
1.38372061398
1.45528113196
1.50120500012
1.50430302217
1.45321108341
1.34447101014
1.18326045977
0.982644191676
0.76147457519
0.541302608336
0.342831689224
0.182525341679
0.229226839322
0.384055395929
0.580949856342
0.802053236045
1.02486004585
1.22592978116
1.38476910113
1.48721330597
1.52772419928
1.51020867241
1.44721799301
1.35766761982
1.26347301295
1.18568416343
1.1407880507
1.13781900002
1.17677701137
1.24862775951
1.336884265
1.42049653681
1.47754911484
1.48912654033
1.44267754564
1.33429523943
1.16951781808
0.962509981387
0.733765070207
0.506723589128
0.303891027338
0.143124369353
0.232199272299
0.384558302795
0.582884569335
0.807927626712
1.03537989466
1.23991136202
1.39938771642
1.49854431763
1.53148243035
1.50255766347
1.42550843765
1.32097647408
1.21284917425
1.12405729585
1.07255533335
1.06818023108
1.11093198904
1.19097366289
1.29035075818
1.38613251721
1.45443153848
1.47460610081
1.43291778356
1.3250109778
1.15678441885
0.94350274695
0.707300274462
0.473507012541
0.266430541457
0.105321306418
0.233395929527
0.383614273758
0.583701186271
0.813012761169
1.0454393271
1.25376136635
1.41420359503
1.51040143248
1.53609560443
1.4960904374
1.40531150501
1.2861267909
1.16439563795
1.06492957053
1.0071505981
1.00169828409
1.0485726285
1.13713406791
1.24796059283
1.35624067894
1.43611498331
1.46521552232
1.42861672235
1.32151425688
1.15016740019
0.93094073292
0.68760953897
0.447393336054
0.236401795524
0.0752788232752
0.232855458521
0.381426677407
0.583767796813
0.817841450152
1.05573587499
1.26834204706
1.43024371093
1.52397634552
1.54292013764
1.49232813138
1.38831305334
1.2549691496
1.12012770446
1.01048100892
0.946918587493
0.940882622668
0.992373114447
1.08994788033
1.21271739582
1.33398936991
1.42593251829
1.4644525949
1.43343687314
1.32763230889
1.15365871537
0.928980613653
0.67901425916
0.43286867617
0.218455627112
0.0578124785743
0.230600927328
0.378108671686
0.583287648802
0.822707031399
1.06665296597
1.28412692166
1.44807167154
1.5399227541
1.55269981719
1.49210462252
1.37543704965
1.2285176071
1.08114952058
0.961905847756
0.893143628137
0.887107663311
0.943797953279
1.05096969645
1.18626585332
1.32111336621
1.42570900943
1.47423227446
1.44938328172
1.3454602695
1.16944358997
0.939897704625
0.683879840407
0.432388528159
0.21513762139
0.0555579473811
0.226632335947
0.373660256594
0.582260742238
0.82760950491
1.07819060002
1.30111599015
1.46768747687
1.55824065822
1.5654346431
1.49541991082
1.36668349394
1.2067721634
1.04746108632
0.919204087023
0.845825720032
0.840373406023
0.902847144997
1.02019951628
1.16860596534
1.31761266786
1.43544445673
1.49455456098
1.47645594809
1.37499813872
1.19752202399
0.963692005837
0.702206282711
0.445952892021
0.22644777836
0.0685152296956
0.220926616333
0.367968274189
0.580483829279
0.832255532947
1.08996534952
1.31883573502
1.48852751948
1.57827636053
1.58038082813
1.50144011917
1.36112841919
1.18871876159
1.01795825487
0.881181490013
0.803680536571
0.799305434299
0.868056183198
0.99608274351
1.15809304568
1.32175249875
1.45331399419
1.5235044986
1.51264982646
1.41415078086
1.23570879185
0.99808820181
0.731628180696
0.471106272485
0.249840512851
0.0940486504516
0.213445120969
0.36082935588
0.577588820264
0.836112304773
1.10127968265
1.33642390336
1.50956482542
1.59883816603
1.59618195618
1.50864411039
1.35708596716
1.17250682233
0.990625725822
0.845658035256
0.764363335209
0.76139428452
0.836750883191
0.975780472379
1.15172346751
1.33036451096
1.47598455282
1.55758429723
1.5543024057
1.45909096371
1.28001194028
1.03892961819
0.767824138936
0.50336255305
0.280664987289
0.127342651001
0.204147266837
0.351991812188
0.57311291925
0.838505917985
1.11124859056
1.35278437986
1.5294921729
1.61840774644
1.61110859254
1.51509134331
1.35240449021
1.15577359154
0.962889638623
0.809848755733
0.724878042465
0.723432776744
0.805512958571
0.95566331002
1.1456567315
1.33939709873
1.49919342038
1.59232013817
1.59672876063
1.50492265565
1.32532433117
1.08089801043
0.805264806412
0.536981276236
0.312969637733
0.162234560941
0.193007899328
0.341209148142
0.566588290906
0.83874719689
1.11896155718
1.36678530811
1.54695636514
1.63541056465
1.62336485971
1.51876460005
1.34484543012
1.13605917064
0.932068754329
0.770851072138
0.682100738673
0.682075650944
0.770775808951
0.931943315683
1.13588355653
1.34461964055
1.51848863503
1.62303871924
1.63503424871
1.54652987375
1.36630864125
1.11843471487
0.838170179121
0.565961097678
0.340531779456
0.192280355184
0.180035260377
0.328295841526
0.557635648863
0.836263090968
1.12365176785
1.37746610926
1.56080305918
1.64849851351
1.63140888642
1.5179282452
1.3324793873
1.11124039587
0.895846145051
0.726154292431
0.633326967641
0.634424686774
0.729447449833
0.901334740721
1.11892442981
1.3423588595
1.53000315568
1.64567923516
1.66496430052
1.57946428445
1.39832277281
1.14670386966
0.861510631048
0.585078627211
0.357934258141
0.21186911526
0.165286304736
0.313175595227
0.546045444144
0.830710799377
1.12484316985
1.38421747876
1.57028969856
1.65679578473
1.63423161248
1.51143996673
1.31403079786
1.0799084515
0.852679743167
0.674083097125
0.576748158015
0.578538061019
0.679452806136
0.861629258186
1.09243777252
1.33013992489
1.53112889977
1.65750035153
1.68364432979
1.60071804963
1.41822563584
1.16243113293
0.871878568466
0.590793019241
0.361502976331
0.217193491848
0.148876532659
0.295913543238
0.531832444481
0.822054723588
1.1224497984
1.38690308556
1.57522958598
1.66006531474
1.63154560808
1.49896196853
1.28911149944
1.04162480889
0.802080653798
0.614098225079
0.511774682397
0.513775780017
0.620101517938
0.812086141896
1.05563249223
1.30712137802
1.52097404234
1.65755987714
1.69008177903
1.60924824552
1.42492394033
1.16447284842
0.868079968841
0.581859884974
0.34994317897
0.206908363631
0.130982423202
0.276726633272
0.515254066244
0.810592748629
1.11681000719
1.38590175199
1.57604201245
1.65876686319
1.62385110153
1.48103494757
1.25830265767
0.997011102337
0.744710979887
0.546902247895
0.439149581044
0.440921352683
0.552217562811
0.753569838081
1.00941350381
1.27424860242
1.5005244356
1.64688413283
1.68534343777
1.60616213031
1.41956541313
1.1540172116
0.851343496321
0.559548357214
0.324564467519
0.182363800727
0.111835801937
0.255970153602
0.496789060408
0.796927088174
1.10864947258
1.38206261714
1.57369957973
1.65399649456
1.61236762
1.45900189375
1.22307072514
0.947657247124
0.68228409942
0.474332006259
0.360833157343
0.362058545105
0.478008169545
0.688411038231
0.956234961459
1.234099215
1.47248115914
1.62829766091
1.67237731099
1.59453117168
1.40534498462
1.13438261559
0.825111006704
0.527423754462
0.289055623181
0.14737204704
0.0917108443289
0.234102470374
0.477079983799
0.781884489731
1.09897913277
1.37658080986
1.56958160737
1.64731771908
1.59884286441
1.43479469865
1.18553178412
0.895863516203
0.617284476031
0.399056154485
0.279678256289
0.280224392959
0.400694564497
0.620015159383
0.899686472897
1.19044701416
1.44080220203
1.60594264113
1.65550976914
1.57886593077
1.38695740661
1.11044800285
0.794445633154
0.490733400563
0.24884816048
0.107548807775
0.0709056652369
0.211633785919
0.456849126219
0.766399330574
1.0889454525
1.37081488239
1.56525873508
1.64051326392
1.58527164939
1.41062026438
1.14810482418
0.844260986621
0.552555274235
0.324129944562
0.198952217342
0.198898323178
0.323968262068
0.552285803412
0.843883727469
1.1476197767
1.41002742857
1.58457102525
1.63970485145
1.56434253428
1.36979089326
1.08781367505
0.76515976479
0.455501772106
0.210178643477
0.069342734466
0.0497213601744
0.189067471279
0.43680213424
0.751379532804
1.07965862941
1.36607730788
1.56224571153
1.63530015329
1.57357327468
1.38860016621
1.11311369613
0.795375784713
0.490824895901
0.252484053886
0.121787993429
0.121415564215
0.251366766245
0.488962749833
0.792768780218
1.1097618332
1.38450344486
1.5687316949
1.62971371508
1.55591441489
1.35900115282
1.07183761592
0.742813660891
0.4274914039
0.179011882512
0.0389209129796
0.0284417871633
0.16684379333
0.417535683591
0.737578181003
1.07202815692
1.36343398861
1.56176484786
1.63305710718
1.56528286914
1.37042594184
1.08240634651
0.751212265886
0.434254105286
0.186435655569
0.0506591665129
0.0504061068891
0.185676476698
0.432988807167
0.749440848519
1.0801288099
1.36764228598
1.56199309403
1.62926121282
1.55746283426
1.35862585576
1.06671390483
0.731757809657
0.411209192998
0.160011183489
0.0211030580753
