# vtk DataFile Version 2.0
Function: z = f(x,y,z)
ASCII
DATASET STRUCTURED_POINTS
DIMENSIONS 30 30 1
ORIGIN 0 0 0
SPACING 0.05 0.05 0.05
POINT_DATA 900
SCALARS density float
LOOKUP_TABLE default
0.0783294536764
0.184894350369
0.290922282261
0.394813322318
0.494870386739
0.589413191774
0.676896384797
0.756013312588
0.825769275014
0.885513270642
0.934924281776
0.97395585388
1.00274976747
1.0215347632
1.03052867252
1.02986151533
1.01953329163
0.999413981519
0.969285753552
0.928919867068
0.878174541554
0.817096231546
0.746005954741
0.66555471257
0.576737205167
0.480860085753
0.379468706952
0.274243352515
0.166881106244
0.0589818951714
0.127060046044
0.232637430675
0.340146040289
0.44710437068
0.550675239607
0.647982961209
0.736444017206
0.814055873698
0.879595734484
0.932696480693
0.973788150592
1.00391641487
1.02447060879
1.03686934581
1.04225888525
1.04127702641
1.03392376931
1.01956131462
0.997043403016
0.964951421069
0.921896033498
0.866831569617
0.79932799116
0.719752416996
0.629327643327
0.530056204053
0.424521617454
0.315599569391
0.206127242106
0.0985861398035
0.175539477457
0.281283825893
0.391427589094
0.502607685685
0.610846834985
0.712073949022
0.802667343858
0.879928604918
0.942406839929
0.990018812585
1.02394561712
1.04632504943
1.05979399956
1.06696095374
1.06990059915
1.06975851454
1.06653469989
1.05908357648
1.04533045712
1.02266685558
0.988455881814
0.940559739927
0.877797335685
0.800251905394
0.709374341326
0.607863058059
0.499339739527
0.387875473705
0.277447541273
0.171419023606
0.223019394947
0.329672832441
0.443193874485
0.55933786253
0.672987417457
0.778876049181
0.872343908112
0.949996698993
1.01015543348
1.05302075784
1.08052482226
1.09589754786
1.10302337946
1.10570067604
1.10693255269
1.10837236755
1.11002012062
1.11022245375
1.10597625187
1.09348315599
1.06885872129
1.02887302665
0.971593921875
0.896820760711
0.806232531498
0.703223529491
0.592453604281
0.479189245954
0.368547833628
0.264774025852
0.268706001252
0.376477381209
0.493584555497
0.6149012884
0.734170102358
0.844929105173
0.941480281602
1.01973345571
1.07778154308
1.11610907254
1.13739925025
1.14597412255
1.14696568901
1.14536218141
1.14509514269
1.14832571043
1.15505388462
1.16311852769
1.16858809671
1.16647435988
1.15164531765
1.11977892366
1.06819197176
0.996399933125
0.90630989217
0.802012024828
0.689204346343
0.574348748914
0.463702710099
0.362392465615
0.3118133572
0.420352393324
0.540695413564
0.66683460503
0.791372391724
0.906651479337
1.00593568697
1.08443895801
1.14002611197
1.17346556024
1.18819156495
1.18961829764
1.18412531267
1.1778907146
1.17577447422
1.18044550854
1.19190381756
1.20748048427
1.22231553789
1.23023087383
1.22484693777
1.20074955814
1.15450447281
1.08534327042
0.995401131425
0.889464112453
0.7742683944
0.657471271575
0.546470319976
0.447273352492
0.351618636561
0.460089448946
0.582832435231
0.712958205353
0.841929084878
0.960892377381
1.06207373631
1.13999122437
1.19228156502
1.21999705219
1.22732300399
1.22076571718
1.20795230087
1.19625073241
1.19144941046
1.19672503146
1.2120775954
1.23433040585
1.25769506416
1.27480359296
1.27802888316
1.26086463798
1.21912553933
1.15175929327
1.06112917633
0.952717125824
0.834297488294
0.714722960167
0.602531215877
0.504611645486
0.38751066283
0.494751878994
0.618733458841
0.751684435138
0.883927035009
1.00541315992
1.10733029766
1.18350063027
1.23133278511
1.25216293871
1.25092746511
1.23522478631
1.21392956618
1.19559965485
1.18695187886
1.19167071406
1.20975616043
1.23752374214
1.26825663266
1.29339698184
1.30407012582
1.29267764261
1.25428315815
1.18755049593
1.09507102857
0.983022574041
0.860217644554
0.736704338641
0.622160429178
0.524356883398
0.41902417304
0.523767730405
0.647719841235
0.782227961127
0.916474218766
1.03921511351
1.14059996749
1.21375508205
1.25586098852
1.26853774596
1.25747278438
1.23135665102
1.20031156449
1.17408524771
1.1603229551
1.16321694191
1.18276720814
1.21478149853
1.25161455867
1.28351866565
1.30037160084
1.29348281702
1.25716488416
1.18979774321
1.09420086285
0.977247941725
0.8487896577
0.720069511423
0.601905374208
0.502949790459
0.445854666523
0.546965286288
0.669752649301
0.804682633988
0.939797270596
1.06265765637
1.16237494778
1.23137956551
1.2666239448
1.27001202728
1.24798229893
1.2103174322
1.16838720047
1.13312919945
1.11311711141
1.11305097103
1.13293077832
1.16805649859
1.20985444956
1.24738703554
1.26928448313
1.2657641199
1.23038745986
1.16125056137
1.06140098921
0.938408322684
0.803161405322
0.668099139882
0.545179496115
0.443936595597
0.46785198984
0.564545693574
0.685384330342
0.819952201394
0.955151238541
1.07734713691
1.17461288733
1.23868302979
1.26628190347
1.25959733257
1.22581885902
1.17582128049
1.12222192513
1.07714826144
1.05010239954
1.04629215355
1.06571752346
1.10317069518
1.14914955856
1.1915266451
1.21768462667
1.2167487056
1.18152933993
1.10983870549
1.00495246309
0.875136072739
0.732316543611
0.590128180578
0.461669051829
0.357354856113
0.484994414255
0.576998056295
0.69561482115
0.829547432903
0.964557724924
1.08581599023
1.18035705399
1.23921957552
1.25889979792
1.24186942797
1.19606906355
1.13346562756
1.06792400291
1.01276153087
0.97840874945
0.97058125218
0.989279039058
1.02878651656
1.07867314667
1.12562158812
1.155766958
1.15714233342
1.12180711647
1.0472896004
0.9370935421
0.800180282256
0.649514995696
0.499927389403
0.365655630008
0.257996993428
0.497348256461
0.58497222482
0.701677505779
0.835285246246
0.970417181155
1.09104820141
1.18317496652
1.23714025513
1.24921221428
1.22214643329
1.16463456602
1.08973566058
1.01256215465
0.94762126228
0.906271949356
0.894737588822
0.913018180676
0.954890351974
1.00899513683
1.06082532121
1.0952684674
1.09926552733
1.06412484711
0.987090837434
0.871895351249
0.728195609927
0.569994953949
0.413318492412
0.273544490384
0.162851800956
0.505020508055
0.589131744147
0.704792482621
0.838942293217
0.975062812426
1.09593352904
1.18651293692
1.23644793403
1.24177857133
1.20554432071
1.137187892
1.05086045853
0.962922012731
0.889069641449
0.841590738432
0.827216456045
0.84594679429
0.891050600798
0.95024048182
1.00781935052
1.04742721446
1.05491290031
1.02083369823
0.942150136354
0.822822163697
0.673202882309
0.508333798327
0.345435422959
0.201026119711
0.0881663188468
0.508113057943
0.590012767828
0.70593016988
0.841923256664
0.980333566236
1.10274518527
1.19307844199
1.24028435365
1.24017487517
1.19607336098
1.11817357689
1.02171882144
0.924316641844
0.842853997709
0.79054671066
0.774633712483
0.795115003178
0.844751650959
0.910327834205
0.974956593301
1.02103038103
1.03330589887
1.00158938099
0.922557472978
0.800398219911
0.64616060452
0.475924298594
0.308105215456
0.16036181705
0.0466361108109
0.506686721882
0.587913621352
0.705626402771
0.845001481535
0.987240297259
1.11273153451
1.20435735584
1.25037289785
1.24636201938
1.19593195742
1.11002753374
1.00498417211
0.899656974494
0.812122773297
0.756525818005
0.740612819828
0.764383778766
0.820091983609
0.893593184869
0.966810550149
1.02088897747
1.03949304308
1.0116779252
0.933836386835
0.810384569148
0.653067335543
0.479002523465
0.307801448347
0.158262670574
0.0452097747499
0.500741499872
0.582834304717
0.703881181294
0.848176967828
0.995783005496
1.12589257675
1.22034967849
1.26671356664
1.26034000396
1.20512011002
1.11274976255
1.00065651052
0.888943010681
0.796875968212
0.739528060469
0.725153778083
0.753753121052
0.817071598748
0.900036533813
0.983381221067
1.04700300377
1.07347433294
1.05109933084
0.975986877923
0.852781211407
0.693923075379
0.517568472939
0.344524121632
0.194728680281
0.0838873106637
0.490216576156
0.574476492436
0.700158670233
0.850676370599
1.00495083627
1.14097994759
1.23956953581
1.28758297615
1.28014793533
1.22143941546
1.12390435026
1.0060624139
0.889263817898
0.793965140218
0.736167486085
0.724633125551
0.759362058614
0.831592015224
0.925321890156
1.02009510544
1.09456144958
1.13020124838
1.11456756813
1.04348540672
0.921827097433
0.762729265043
0.585386078302
0.411799656867
0.263048758001
0.155720120651
0.475010061828
0.562304030958
0.693488451387
0.851095006997
1.01290484209
1.15572043489
1.25930945098
1.30983938494
1.30220980739
1.24087960302
1.13904676148
1.01632308221
0.895306331458
0.79764295998
0.740262500871
0.732435003601
0.774160468171
0.856168845108
0.961530601319
1.06859928606
1.15477713305
1.20045234288
1.19242692589
1.1262419974
1.00699798676
0.848527399418
0.671062569789
0.49780101964
0.350961604671
0.248012641001
0.455014965291
0.545653375284
0.68265042636
0.847656225229
1.01731181775
1.16722428004
1.27612311204
1.32947992762
1.32196620136
1.25832470049
1.15250447065
1.02520943647
0.900284918983
0.800567241723
0.743914365651
0.74010411966
0.789136503751
0.881233689031
0.998537714535
1.11821225673
1.21641199459
1.27243300348
1.27232623777
1.2113489302
1.09482960622
0.937296651948
0.760020567446
0.587394276596
0.442776733538
0.344517831564
0.430164969852
0.523874675044
0.666411211101
0.838543107564
1.01577131185
1.17250749797
1.2864430002
1.34235355175
1.3346825311
1.26845658807
1.15837582426
1.02623628951
0.897130859622
0.795085730912
0.738887292213
0.738821151836
0.794887309782
0.896800157738
1.02577330687
1.15778056087
1.26772904393
1.3338227062
1.3413614461
1.2853186138
1.17125083081
1.01438236394
0.837021878897
0.664757701682
0.52208888487
0.428246898926
0.400481804247
0.496478826207
0.643770868817
0.822244884443
1.00626172207
1.16903765359
1.28722584762
1.3449061567
1.33629386324
1.26669949962
1.1515742234
1.01380620966
0.87973588894
0.774579330352
0.718051350595
0.720945337402
0.783261290775
0.894205822977
1.03406411731
1.17762010467
1.29853335451
1.37391569174
1.38831595881
1.33642362335
1.22402340293
1.06703544503
0.888806581016
0.716120539005
0.574616470011
0.484407421666
0.366115621915
0.463264681843
0.614176952205
0.797857808195
0.987528000357
1.15520839847
1.27651400551
1.33482879332
1.32413994825
1.25004188525
1.12873681783
0.984205046277
0.844034555931
0.734631288666
0.676638489051
0.681357324243
0.748787794242
0.867628731891
1.01723689262
1.17120633455
1.30194907236
1.38548480575
1.4056113212
1.35673420378
1.24486626712
1.08662353939
0.906391017611
0.732147832005
0.590673232027
0.502961842482
0.327370923524
0.424403958842
0.577668394377
0.765288028152
0.959343512272
1.13066031441
1.25381527187
1.31149647583
1.29746301657
1.2175931916
1.0888402704
0.936276678471
0.788737955917
0.673819917394
0.613094235343
0.618369856341
0.689646780386
0.815116060904
0.973206025453
1.13632085937
1.27562502257
1.36604608954
1.39063079079
1.34350082883
1.23089711336
1.07013155322
0.886627311093
0.709558919312
0.566845725773
0.480363932449
0.284712972041
0.380468610266
0.534923838492
0.725320877569
0.922600281165
1.09639211484
1.22023505024
1.27612129787
1.25758185195
1.17077889252
1.03341674505
0.871659960266
0.715591633021
0.593997450758
0.529377513789
0.534048548109
0.608010553719
0.738946804623
0.904357200509
1.07545605394
1.22216027005
1.31830529811
1.34618681268
1.29964263369
1.18514176692
1.02069200189
0.832754666939
0.651699696502
0.506586536918
0.420172967333
0.238752943971
0.332395305197
0.487205446207
0.67954401068
0.879211453845
1.05464243915
1.17833747259
1.23159288398
1.20771157148
1.1131395977
0.966332344055
0.794546486501
0.629112674657
0.500006468748
0.430656396954
0.43388696469
0.509698171958
0.64526551334
0.817160460658
0.995407453685
1.1486758428
1.24970895205
1.28005140003
1.23325712411
1.11602322614
0.947053376315
0.753847068623
0.567969639623
0.419620634087
0.332439408334
0.190213665544
0.281392463477
0.436207230976
0.630137034551
0.831842230991
1.00856208163
1.13175892681
1.18203321568
1.1524597503
1.04976847587
0.893165829757
0.711000613143
0.535851030407
0.398882514557
0.324452021643
0.325891836502
0.403201959134
0.5430501047
0.721079317154
0.906124163486
1.06560643931
1.17117734346
1.20363043856
1.15623577941
1.03591856394
0.862078343025
0.663252776303
0.472202602445
0.320267464664
0.231968296449
0.139881075932
0.228805163974
0.383833411367
0.579563307447
0.783515110565
0.961732679941
1.08464019027
1.13214221001
1.09708544516
0.986483723481
0.820294538311
0.627958816038
0.443302315814
0.298680343427
0.219378282797
0.219236198182
0.298254089581
0.442591892736
0.626964223729
0.819015776771
0.98492079271
1.09523834516
1.13001094077
1.08222475181
0.959033072246
0.780531333639
0.57629536129
0.380281295978
0.224968879355
0.135760622081
0.0885489723972
0.175960475804
0.331944328343
0.530216442183
0.737156977234
0.917614390602
1.04097469133
1.08644656719
1.04664862813
0.92887858446
0.753844985481
0.552080882805
0.358659590346
0.207126286677
0.123694783585
0.122712924749
0.204180710169
0.353750296166
0.545207870954
0.745008255958
0.918078137265
1.03388446327
1.07171868466
1.02428309112
0.89895907272
0.71653794168
0.507633688958
0.307397857446
0.149450287235
0.0600750661564
0.0369657079072
0.124019102544
0.282113036097
0.484081843563
0.695165586412
0.87901731964
1.00398488664
1.04858109449
1.00519645708
0.881412567282
0.698689030361
0.488651023147
0.28761941432
0.130329255234
0.0439227855462
0.0432556283564
0.128327783665
0.28428362837
0.483980922819
0.692684615652
0.874073838193
0.996523413614
1.03857373664
0.99264321441
0.866341333034
0.681155285426
0.468737228197
0.265434106352
0.106005858419
0.0176181494023
