# vtk DataFile Version 2.0
Function: z = f(x,y,z)
ASCII
DATASET STRUCTURED_POINTS
DIMENSIONS 30 30 1
ORIGIN 0 0 0
SPACING 0.05 0.05 0.05
POINT_DATA 900
SCALARS density float
LOOKUP_TABLE default
0.0731648743131
0.15883714741
0.244076384377
0.327592321477
0.408016342741
0.48399338063
0.554277183025
0.617813997331
0.673801646018
0.721715127934
0.761295557838
0.792505472396
0.81545921073
0.830341241114
0.837327234072
0.83652204436
0.827925671978
0.811433262171
0.786869144413
0.754048850431
0.712858041104
0.663334179764
0.605736151653
0.540588957924
0.468694776105
0.391107358792
0.309072958104
0.22394664158
0.13709702519
0.0498143726692
0.132548827262
0.217298698983
0.303606010205
0.38946954786
0.472601261755
0.550682050388
0.621628431274
0.683825457721
0.73628700376
0.778717005785
0.811462268851
0.835366075768
0.851548858211
0.861154659277
0.865107881644
0.863922879601
0.857599653147
0.845623847994
0.827071061464
0.800797250461
0.765681983308
0.720881977196
0.666050427072
0.601483396538
0.528167011565
0.447716218846
0.362214500864
0.273980959122
0.185303643813
0.098183768006
0.19162965492
0.276850458206
0.365619176626
0.45522364778
0.542456387247
0.624034259566
0.697036551885
0.759287123417
0.809615899748
0.847955754824
0.875259183994
0.893250216213
0.904055375707
0.909778280398
0.912092065117
0.911920583684
0.9092638361
0.903197968544
0.892049846185
0.873715851101
0.846069459066
0.807386641124
0.756714901928
0.694121367532
0.620776112347
0.538855277163
0.451279574831
0.361332140812
0.272220459528
0.186656693376
0.249504172672
0.336091575934
0.428217369961
0.522458443022
0.614687876472
0.700658500887
0.776612373049
0.839812158075
0.888903833109
0.924049209647
0.946806473331
0.959780399262
0.966103604217
0.968839280942
0.970409296422
0.97214700401
0.974052403707
0.974792142157
0.971944352379
0.962445841625
0.943163993117
0.911494031755
0.865877771898
0.806153402049
0.733674945063
0.651179735824
0.56242571755
0.471660059666
0.383009680815
0.299897692729
0.305214349338
0.393420417029
0.489155351116
0.588285090537
0.685763282422
0.776378723386
0.855536239844
0.919937302816
0.968043941005
1.00024690346
1.01871006611
1.0269189502
1.02901226507
1.02901277828
1.03009108898
1.03399005004
1.04070966147
1.04850707038
1.05421167763
1.05380071566
1.04313547513
1.0187304348
0.978421718739
0.921818577889
0.850458983554
0.767641464713
0.677961194951
0.586629377653
0.498692365689
0.418284220122
0.357811637642
0.44721361044
0.546134925267
0.649730571728
0.752034762727
0.84687226092
0.928810662353
0.993990243951
1.04068908598
1.06952687502
1.08327317732
1.08629426026
1.08373492572
1.0805775161
1.08074136268
1.0863788179
1.09748988174
1.11192220179
1.12575644676
1.13401027425
1.13153888238
1.11397600376
1.07855207217
1.024647401
0.953983909991
0.870421322228
0.779392041657
0.687071305625
0.599424901226
0.521297838857
0.4064236611
0.496012718429
0.597111593418
0.704164326341
0.810285695878
0.908336430722
0.992046896553
1.0569961762
1.10127840148
1.12574219654
1.13376281791
1.13058727912
1.12236647459
1.11504232156
1.11328288347
1.11965001226
1.13414370793
1.15420211854
1.17515718065
1.19106697702
1.19578061323
1.18405107575
1.15250310805
1.10028808598
1.02931187773
0.943995400468
0.850608288511
0.756289813168
0.667925195759
0.59107039601
0.450312792895
0.53868727831
0.640562057018
0.749670219959
0.85820711159
0.95806942664
1.04215030042
1.10546762168
1.14593157377
1.16461971841
1.1655130024
1.15473918542
1.13945525447
1.12656270159
1.12147832236
1.12717346829
1.14364813935
1.16793098408
1.19460520687
1.21676931569
1.22726632354
1.21996847075
1.1908948105
1.13896778109
1.06627719915
0.977805175938
0.880658576151
0.782940705052
0.692456218187
0.615472024615
0.488917508758
0.574547001906
0.675667263977
0.785300436583
0.894722429952
0.994865904855
1.07778676624
1.13794170874
1.1730569673
1.18443904115
1.17667456741
1.15677205191
1.13289457417
1.11290320108
1.10296346037
1.10645620307
1.12338142918
1.15035828767
1.1812212508
1.2081092517
1.22285921084
1.21846262238
1.19033284922
1.13716339212
1.06122801613
0.968070026626
0.865633518654
0.762985831446
0.668851054772
0.590207047022
0.52187030788
0.603384644691
0.702380226059
0.811168244259
0.9201051753
1.01915964599
1.0995503309
1.15517273059
1.18356913153
1.18627497053
1.168482575
1.13808119689
1.10424000831
1.07577965094
1.05961438468
1.05953456009
1.07554017716
1.10384088534
1.13752242474
1.16776415367
1.18539690002
1.18253141183
1.1539753617
1.09819331283
1.01764297873
0.918428858853
0.809332278628
0.700384611242
0.601229380689
0.519555394693
0.548989970594
0.625442970206
0.721367690006
0.828364372938
0.935870060786
1.03288934639
1.10980367398
1.15994734998
1.18067871245
1.17376213574
1.14499563755
1.10314921598
1.05839813568
1.02052261316
0.997185640493
0.992587067746
1.00672689492
1.03540527194
1.07095920675
1.10360848282
1.12317783552
1.12089726674
1.09096875877
1.03162793727
0.945516464196
0.839300033094
0.722597199752
0.606403371325
0.501281506031
0.415631360924
0.570250272566
0.641312276416
0.733836476086
0.838712165189
0.944456951282
1.03911139325
1.11221970494
1.1565549987
1.16929166414
1.15242301315
1.11235275373
1.05873163014
1.00274099956
0.955120653346
0.924282315699
0.914835336235
0.926779714955
0.955506102241
0.99260277389
1.02732993856
1.04850623905
1.04648093111
1.01485030675
0.951621054057
0.85961878344
0.746070382546
0.621431637525
0.497661989495
0.386243830898
0.29628786812
0.585731251182
0.651776865495
0.74127515126
0.844404452758
0.948762943321
1.04142714787
1.11110404989
1.15000556763
1.15512214226
1.12867602322
1.07767660881
1.01265538941
0.945799814781
0.888809251089
0.85084415469
0.836923374735
0.847046911222
0.876195915002
0.91520992972
0.952389589205
0.975547443711
0.974152002838
0.9411938683
0.874450790646
0.776932328714
0.656426564253
0.524226513779
0.393255652369
0.275915806693
0.182028632469
0.595562034231
0.65763756761
0.745156248071
0.847585470566
0.9516039742
1.04332424994
1.11061605089
1.14513010121
1.14367289363
1.10869561515
1.04781335433
0.972438347736
0.895764137657
0.83044966509
0.786404118542
0.769055846696
0.778404849553
0.809022778429
0.851000444816
0.89167890772
0.917864624843
0.918145359639
0.884906023528
0.815695429511
0.713707084867
0.587290265439
0.448575218113
0.311449451927
0.189234227774
0.092462150704
0.599865591083
0.659541464635
0.746650960902
0.849950525502
0.955199463317
1.04754623135
1.11402335234
1.14572035636
1.13925978768
1.09732177085
1.02812708475
0.943968712059
0.859046287639
0.786978327304
0.738422751715
0.719217409088
0.729362299422
0.763019574502
0.809531313668
0.855279001099
0.886063001947
0.889590333521
0.857640216947
0.787532527674
0.682644721426
0.551887268142
0.408227645072
0.266517395218
0.140997213697
0.0429106548898
0.598715320066
0.657848604574
0.746405987427
0.852432964913
0.96076940769
1.0555997388
1.12311925061
1.1538562791
1.1442494201
1.09720773572
1.02155769511
0.930473027111
0.839159459131
0.76219508181
0.710986547962
0.691781205334
0.704579053928
0.743132745994
0.79603562872
0.84870961146
0.885948966815
0.894579965948
0.865776139691
0.796628425946
0.690698228875
0.557457212515
0.410710084484
0.266272421743
0.139304353635
0.0417603838729
0.592111221181
0.652558987424
0.744421327646
0.855032788801
0.968313807321
1.06748477228
1.1379037457
1.16953786945
1.15864179091
1.10835350975
1.02810518541
0.931951292892
0.836103652133
0.756099928608
0.704095507282
0.686747235436
0.704055113071
0.749362292905
0.810513389971
0.871970738803
0.917522519446
0.933114256919
0.909313791762
0.842983124325
0.737867607214
0.60400009856
0.456022536348
0.310714531502
0.184155647588
0.0890113376531
0.579979896097
0.643312565186
0.740050283885
0.856816649816
0.976612665188
1.08169468512
1.15658354125
1.19068518136
1.1800703044
1.12810584756
1.04482966061
0.945176964669
0.84636567224
0.764893023619
0.713663135924
0.699742355968
0.723130683753
0.776761772462
0.847731504979
0.91954264101
0.974977268049
0.999100164972
0.981873482024
0.919930282003
0.817199865959
0.68427628612
0.536638710837
0.392030784994
0.267451506384
0.176277277384
0.562198375447
0.629462255983
0.732121661761
0.856089241071
0.983446561897
1.09548594539
1.17589099284
1.21350645791
1.20421909113
1.15162476722
1.06636702626
0.964261835499
0.863533200003
0.781637934888
0.732228889425
0.722781909961
0.753296996497
0.816298302685
0.898132979254
0.981344211086
1.04770799312
1.0814083581
1.07180176596
1.01529234196
0.915993335583
0.78505999316
0.638808713407
0.495947175169
0.374393810464
0.288235971001
0.538637531442
0.610207229649
0.71916292873
0.850706327644
0.985999560148
1.10537091343
1.19166675842
1.23317065468
1.22558540429
1.17273581955
1.0858711308
0.981688051443
0.879416679104
0.797473403719
0.750259806713
0.745661233966
0.783677685477
0.856423815367
0.949498042213
1.04448397607
1.12215151933
1.16580395858
1.16419206348
1.11349102172
1.01799803124
0.889429532456
0.744939154457
0.604198610049
0.486045765474
0.405278921772
0.509217326694
0.584763184011
0.699685517833
0.838475077788
0.981374563409
1.10774822793
1.19960521189
1.24466788078
1.23845508823
1.18502058408
1.09621928897
0.989628662464
0.885484894719
0.803163950503
0.757816143392
0.7577363188
0.802924476725
0.885085771756
0.989069890316
1.09550086764
1.18414251356
1.23741736852
1.24347051189
1.19824819381
1.10623156066
0.979698246962
0.836639112156
0.697689903016
0.582607920009
0.506902413506
0.473963985538
0.552539821101
0.672482608802
0.817572148935
0.967131706809
1.09956150169
1.19603344377
1.24370870443
1.23792218885
1.18295658443
1.09127250211
0.981328147583
0.874365803569
0.790721009659
0.74629281158
0.749785554278
0.801199237755
0.891829517063
1.00577734647
1.1227071864
1.22137675412
1.28332784393
1.29609984491
1.25541006965
1.16592361297
1.04047930348
0.897905231006
0.75980117627
0.646843873967
0.575253523801
0.433058727641
0.513294377382
0.636887454892
0.786906811134
0.941756277193
1.07887203837
1.1785887745
1.22750646285
1.22077606017
1.16290919142
1.06697215781
0.952303911204
0.841152826853
0.754814019179
0.709935266063
0.715630411985
0.771899456943
0.86962855646
0.992169932653
1.11822847111
1.22555579656
1.29481295715
1.31293365167
1.27540625516
1.18707981088
1.06135434154
0.917895167326
0.779266102926
0.667063317259
0.598217959361
0.386869053812
0.467234097377
0.592947044342
0.74636579634
0.904974750229
1.04524605736
1.14667716717
1.19530686286
1.18610215274
1.12380359929
1.02208319405
0.901160634998
0.784290389956
0.693727148165
0.646867419659
0.653234548449
0.712828534535
0.816126033906
0.945730536528
1.07938735316
1.19384201598
1.26887482701
1.29081379471
1.2549183566
1.16622150437
1.03868445482
0.89280975851
0.752125264092
0.639146574707
0.571515788722
0.33595648832
0.415049269264
0.541480429241
0.69689692055
0.857863705825
0.999888902451
1.10163272951
1.1485727761
1.13549210208
1.06736020751
0.958454774179
0.829876246243
0.705885184065
0.609695851712
0.559453491371
0.565090946585
0.626608217355
0.734072460137
0.869338432743
1.00919187111
1.12937221486
1.20877901987
1.23313460432
1.19746946815
1.10700055152
0.976250265325
0.826558390479
0.682416809598
0.567260560051
0.499442689535
0.281058657983
0.357870355729
0.48401090814
0.640416318182
0.802732114267
0.945502379815
1.04655010354
1.09079168046
1.07282622197
0.997852165677
0.880752883692
0.743509566293
0.611388866403
0.508564622911
0.453930810157
0.457829771219
0.520261506096
0.63088367171
0.770802293724
0.915843533245
1.04074073735
1.12351271577
1.14927609638
1.11283244159
1.01958263998
0.884610296558
0.730092422597
0.581484934677
0.463142304389
0.394128528766
0.223047939282
0.297155794511
0.422582980035
0.579554549491
0.742796597064
0.885889172214
0.985818033292
1.02693838121
1.00366537892
0.921426401602
0.795710511636
0.649379645456
0.508706548532
0.398824634581
0.339376610094
0.341114317683
0.404037757346
0.517395086473
0.661543598573
0.81134987993
0.940541185072
1.02625557757
1.05300399503
1.01535906229
0.91890561639
0.779288456416
0.619521824019
0.466025669739
0.344073899392
0.27344145934
0.162872879497
0.234528956659
0.359494839749
0.517284633072
0.681704996586
0.825371945791
0.924434008671
0.962685192037
0.934356710417
0.845104876514
0.711024443022
0.555858092511
0.406884663006
0.290197143049
0.226186971282
0.22601548985
0.289682698751
0.406027255844
0.554657722483
0.709481110129
0.843218580756
0.932127451794
0.960112970549
0.921518824317
0.822113798573
0.678103886502
0.513340560123
0.355207803936
0.229898957981
0.157899917953
0.101491509805
0.171591477312
0.296991726378
0.456495411976
0.622989759841
0.768126751511
0.867217684603
0.903495371831
0.871007079283
0.77563805721
0.6340887486
0.470982582169
0.314604488494
0.19200703094
0.124330380303
0.12314537826
0.18845202481
0.308679478277
0.462687567866
0.62342373021
0.762603034734
0.85560205272
0.885720341182
0.847072649866
0.745611712688
0.598104716931
0.42924036498
0.267366675295
0.139596422142
0.0671264505486
0.0398070148218
0.109744205615
0.2369721536
0.399583064416
0.569544729574
0.717545096652
0.818058232897
0.85375575693
0.818500986395
0.718408109095
0.57078325831
0.401130608901
0.238741183998
0.111627121789
0.041677325224
0.0408721355122
0.109211552653
0.234715235438
0.395494280918
0.563536550903
0.709551022264
0.808033520141
0.841677911253
0.804370007795
0.702246492126
0.552635745625
0.381063701043
0.216842410803
0.0880040833951
0.016456513178
