# vtk DataFile Version 2.0
Function: z = f(x,y,z)
ASCII
DATASET STRUCTURED_POINTS
DIMENSIONS 30 30 1
ORIGIN 0 0 0
SPACING 0.05 0.05 0.05
POINT_DATA 900
SCALARS density float
LOOKUP_TABLE default
0.0542280833144
0.0632940698921
0.0723080921343
0.0811153183924
0.0895515147503
0.097454073103
0.104673443197
0.111083174719
0.116587006368
0.121121938004
0.124656903399
0.127187406952
0.128727169358
0.12929832681
0.128921959771
0.127610650812
0.125364399932
0.122170624561
0.118008244236
0.112855122765
0.106697539452
0.0995399898969
0.0914135403296
0.0823811908882
0.0725392028761
0.0620140266047
0.0509552123283
0.0395253681515
0.0278887279907
0.0162001234944
0.152674358394
0.161056682775
0.169625899897
0.17814186419
0.186330009632
0.193912044043
0.200637949524
0.206313932472
0.210821657771
0.214125597789
0.216267369131
0.217348165736
0.217502439404
0.216867475306
0.215554201765
0.213624341295
0.211077893895
0.207853137051
0.203839142442
0.198898624896
0.192897132613
0.185733471654
0.177366025414
0.167830321524
0.157244695102
0.145802939751
0.133755073367
0.121379388133
0.108950450071
0.0967084047484
0.250626972286
0.26059477669
0.270988330911
0.28148217546
0.291691412206
0.301222064895
0.309723647984
0.316935024578
0.322715785748
0.327057876367
0.330075595878
0.331975827755
0.333013754904
0.333441811477
0.333460773654
0.333181503892
0.332604002193
0.331617406096
0.330020939423
0.327562168024
0.32398590899
0.319085278847
0.312745978154
0.304976062037
0.295915939425
0.285826747213
0.275058970944
0.264006586872
0.253054493128
0.2425281492
0.34661502433
0.35962696874
0.373303520042
0.387233904828
0.400922892861
0.413860823809
0.425596744488
0.435802174709
0.444314631732
0.451153532936
0.456505860596
0.460684187727
0.46406442834
0.467014165566
0.469824023442
0.472654004372
0.475504108354
0.478214332987
0.480494054232
0.48197568896
0.482283323158
0.481104383814
0.478251888649
0.473706420286
0.467630461467
0.460352492377
0.452323466203
0.444053043275
0.436036453832
0.42868447128
0.439078292321
0.455544881702
0.472914935051
0.49069236504
0.508271609325
0.525027323499
0.540408086732
0.554018075547
0.565672733388
0.575418950141
0.583516390918
0.590383318268
0.59651637731
0.602398300154
0.608409558696
0.614759295282
0.621447509912
0.62826506024
0.634831474369
0.64066402019
0.645266052586
0.648219309005
0.649264124335
0.648353608692
0.64567231863
0.641616077627
0.636736306514
0.631658349697
0.62698776952
0.62322065331
0.526471999263
0.545704739865
0.566079801511
0.587015782952
0.607796789738
0.627681793387
0.646018905426
0.662344959084
0.676453323993
0.688418362544
0.698572422686
0.707439456505
0.715636840226
0.723762454938
0.732286620395
0.741467618887
0.751305450414
0.761541832686
0.771706445948
0.781201409113
0.789409345955
0.795806304387
0.800059936462
0.802095879787
0.802120764733
0.800597758068
0.798178748265
0.795604763807
0.793591699146
0.792720955528
0.607375417743
0.627731373197
0.649468506771
0.671920103296
0.694259936215
0.715631292971
0.735281817445
0.752680999578
0.767600135186
0.780141059168
0.790708802307
0.799933006226
0.808551778258
0.817278148469
0.826672284472
0.837041608501
0.848386120557
0.860398398405
0.872518274432
0.884032718572
0.894203623492
0.902401347569
0.908220860019
0.911560325946
0.91264844953
0.912015740833
0.910414555973
0.908701607506
0.907703121992
0.908085814597
0.680587269801
0.699783742469
0.720600250333
0.742284764304
0.763900725718
0.784475737943
0.803156977216
0.819346590184
0.832793798854
0.843627910629
0.852326639127
0.859625315508
0.866382778213
0.873427206285
0.881408615196
0.890683567126
0.901252062072
0.912757537858
0.924549979012
0.935801206488
0.945652381849
0.953368173933
0.958470869121
0.96083116001
0.960699824596
0.958674716229
0.955608658673
0.95247404856
0.950207444555
0.949560875745
0.745193073054
0.760737664075
0.778141147366
0.796566179921
0.814965870969
0.8322521398
0.847471695008
0.859959339952
0.869442222821
0.876077123526
0.88041443852
0.883295188502
0.885698943017
0.888569030088
0.892645313046
0.898333494012
0.905633572988
0.914139847849
0.923112455268
0.931608067219
0.938647114158
0.943388575386
0.94528205445
0.94417077144
0.940327578164
0.934417671266
0.927394342152
0.92034567153
0.914318550171
0.910150321084
0.800594326188
0.810255625505
0.82201467417
0.834948815254
0.847900825879
0.859666941261
0.869193402352
0.875747669214
0.879034816228
0.879239095808
0.876983587244
0.873215000771
0.869033637041
0.865497973057
0.863437720006
0.863307719955
0.865107972904
0.868383636787
0.872305000415
0.875813586786
0.877809095248
0.877344815566
0.87379766845
0.866983401486
0.857196940294
0.845170824809
0.831958814083
0.818764672896
0.80674562413
0.796824324711
0.846495900028
0.848732984522
0.85330667544
0.859209001933
0.865172409016
0.86987744783
0.872169891682
0.871249857343
0.866800345381
0.859033080717
0.848643825475
0.836684979428
0.824377574333
0.812895236173
0.803157523994
0.795668419806
0.790427923608
0.786932053391
0.784261250109
0.78124188778
0.776652934645
0.769441990933
0.758913294518
0.744855120479
0.727584468251
0.70790122106
0.686959605601
0.666079070731
0.646527171437
0.629311878565
0.882855086373
0.87713108353
0.873982544185
0.872316183572
0.870754114598
0.867861204329
0.862382758427
0.853451550373
0.84072850692
0.824452825496
0.805392951061
0.784706972924
0.76373665395
0.743770769099
0.725818725276
0.710433644435
0.697615526577
0.686811249746
0.677011407039
0.666927223494
0.655216936247
0.640722455989
0.62267533776
0.600836384133
0.575544668353
0.547667416941
0.518459324233
0.489355523165
0.461733900828
0.436687741989
0.909802231824
0.896727214637
0.886466518024
0.8778415433
0.869364071263
0.859483284904
0.846844022242
0.830511713467
0.810125211518
0.785951186329
0.758830765694
0.730027728462
0.701004568602
0.673165210055
0.647608907582
0.624937923083
0.605152256557
0.587649646106
0.571330836968
0.554791905202
0.536570356838
0.515402413029
0.49044694598
0.461437285757
0.42873457942
0.39327339678
0.356408899819
0.319691905546
0.28461063316
0.252343681348
0.927547630211
0.908825586974
0.893156721388
0.879277120846
0.86558823404
0.850423559887
0.83232746876
0.810298047557
0.783952075406
0.753583694746
0.720106716206
0.684890608173
0.649518595722
0.615509751773
0.584053178945
0.555800279082
0.530751052183
0.508254096407
0.487120309132
0.465830617438
0.442801796252
0.416664377185
0.386504549611
0.352028171087
0.313618462488
0.272277336915
0.229460423994
0.18683422481
0.14599729067
0.10821353418
0.936291545932
0.914480019595
0.895960527983
0.879383844572
0.863041085946
0.845150066946
0.824154690302
0.79898569962
0.769237800215
0.735232607032
0.697956613536
0.65888497765
0.619721655556
0.582100869152
0.547301568918
0.516024296639
0.488269052316
0.463335294162
0.439944071698
0.416461163026
0.391182611965
0.36263326059
0.329826615437
0.292441061561
0.250881893648
0.20621836809
0.160006582158
0.114028721012
0.0699936680661
0.0292506498457
0.93615351341
0.914276876387
0.895931131166
0.879681737301
0.863709479271
0.84611648784
0.825246198094
0.79996201035
0.769836556106
0.735218922816
0.697168286779
0.657265495456
0.617335236135
0.579126879693
0.544009224468
0.512731952189
0.485295062857
0.460948874741
0.438324589504
0.41567283627
0.391168927749
0.363232016481
0.330802926167
0.293532569354
0.251848314542
0.206886761415
0.160304474888
0.113999324195
0.0697905248586
0.0291126173237
0.927133532645
0.908216157352
0.893068530937
0.880170799034
0.867593414015
0.853322822569
0.835601992138
0.813226979745
0.78574834308
0.753542642098
0.717741735936
0.680032161592
0.642359337459
0.606587783395
0.574176145594
0.545923245731
0.521829083805
0.501094838144
0.48226186255
0.463465637168
0.442760743604
0.418460644859
0.389433481799
0.355302694465
0.31651772517
0.27428251689
0.230354102182
0.186746034359
0.145387861048
0.107799436614
0.909112069214
0.8957114986
0.886319533939
0.879331006947
0.872706037887
0.864315389374
0.852301561205
0.835393267114
0.813118990974
0.785882765249
0.754889131911
0.721930317493
0.689072471497
0.658295262758
0.63114718533
0.608476200831
0.590282309261
0.575717549001
0.563233425999
0.550850271418
0.536501935758
0.518396192485
0.495328499626
0.466894824719
0.43356668389
0.396615363405
0.357898363466
0.31954492146
0.283594917123
0.251653518738
0.881888858719
0.875709081078
0.873776766466
0.874401432678
0.875432867872
0.874626150586
0.870023312975
0.860285725478
0.844919798159
0.824357035985
0.799874663764
0.773370597568
0.747031718003
0.722952842884
0.702772314123
0.687387233283
0.676797600362
0.670106313799
0.665675031682
0.661408936197
0.655121146736
0.644913747228
0.629509512866
0.608476938681
0.582309614611
0.552346170215
0.520544573339
0.489149745446
0.460311898376
0.435721514335
0.845253607329
0.846904695656
0.853042104087
0.861890036498
0.871187948939
0.878575235875
0.881993461815
0.880036653908
0.872189148402
0.858909922774
0.841548884665
0.822109639684
0.802899799545
0.78612933104
0.77352642394
0.766037319752
0.763662018475
0.765454278603
0.769685910365
0.77414694697
0.776529776702
0.774830793954
0.767700091082
0.754678690613
0.736282256296
0.713916760984
0.689640640165
0.665814499378
0.64469888257
0.628069585867
0.799075968445
0.808021050224
0.821691309182
0.838225635277
0.855253152452
0.870297571094
0.88119998807
0.886487087237
0.885621131031
0.879088569433
0.868311992921
0.85540069664
0.842783023411
0.832784089005
0.827221931052
0.827091931001
0.832394088852
0.842133023156
0.854490696284
0.867141992462
0.877658568873
0.883931130369
0.884537086473
0.878989987204
0.867827570127
0.852523151383
0.835235634106
0.818441307909
0.804511048849
0.795305966969
0.743398650268
0.758096802378
0.777758988745
0.800438785404
0.823654984191
0.84481561142
0.861661296312
0.872651379433
0.877226049406
0.875899228719
0.870166190683
0.862241919983
0.854675490544
0.849907167117
0.849844835191
0.855533016157
0.866971710017
0.883116395377
0.902059186749
0.921359819382
0.938469219351
0.951172401971
0.957974093931
0.958360372743
0.952891049784
0.943106784489
0.931266947634
0.919963512908
0.911677688475
0.908355898298
0.67851678197
0.696736594358
0.720159298078
0.746753155245
0.773926625591
0.798972051351
0.819529594104
0.833991251125
0.841775137223
0.843422647391
0.840501737776
0.835333082602
0.830586486898
0.828817364396
0.83202344844
0.84129840037
0.856642220183
0.876961246544
0.900257746105
0.923976305138
0.945447118611
0.962349512301
0.973115530061
0.977203776899
0.975196138004
0.968700616102
0.960077049614
0.952033096305
0.947160296443
0.947490387914
0.605028864869
0.624277938671
0.648968760881
0.676984279696
0.705622622737
0.732060448167
0.753837449919
0.769278281977
0.777778985337
0.779908427498
0.777307247443
0.772401808932
0.767982648101
0.766720327661
0.770702428815
0.781071752844
0.797828299749
0.819829268249
0.844987077138
0.870631163708
0.893970991822
0.912580197719
0.924818142419
0.930115958419
0.929077604726
0.923378427355
0.915478732373
0.908201861617
0.904249687466
0.905739261722
0.523849381345
0.541845018924
0.565521261988
0.592675744811
0.62049626291
0.646043790371
0.666757553484
0.680894862942
0.687829685926
0.688158362442
0.683594214309
0.676669294823
0.670294871228
0.667256655212
0.669732075837
0.678913074329
0.694799650687
0.716199863687
0.740936284266
0.766223200736
0.789149345853
0.80718266632
0.81860984032
0.822834527846
0.820482761717
0.813297231239
0.803838710124
0.795046224284
0.789731978205
0.790098337609
0.436179609358
0.451278874346
0.472297601894
0.496948112357
0.522307869146
0.54532216227
0.563329750376
0.574520600864
0.578246607104
0.575131581608
0.566961529028
0.556374192198
0.54640156947
0.53994452151
0.539270325238
0.545620061823
0.558993731267
0.578150252399
0.600822348299
0.6241091583
0.644978684052
0.66079318272
0.669766649652
0.671275272336
0.665967157401
0.655652337449
0.642992053832
0.63104101654
0.622721762164
0.620321970348
0.343440276323
0.354954674969
0.372627393251
0.394085437604
0.416295939332
0.436088504369
0.450701423717
0.458257321485
0.45808601723
0.45083879597
0.438374345193
0.42343609727
0.409176781658
0.398612408003
0.394100101083
0.396930082012
0.407102350791
0.423326686305
0.443245963775
0.463844173557
0.481968586193
0.494875769311
0.500707035425
0.498811099515
0.489858142026
0.475725538848
0.459174998979
0.443376916484
0.431364160061
0.425509723274
0.247176159235
0.255516196505
0.270253410486
0.288929493695
0.308401245327
0.325382587242
0.337011342798
0.341342792812
0.337684683028
0.32671577097
0.310367426961
0.29148877291
0.27335326938
0.259092074996
0.251152162394
0.250872892632
0.258254265711
0.271956920572
0.289533884579
0.307853999107
0.323643803593
0.334054176128
0.337153746388
0.332263756851
0.320076461772
0.302536580334
0.282506289179
0.263271666446
0.247975912942
0.239077336149
0.148947480299
0.155571816175
0.168832185837
0.186184967884
0.204376629402
0.220005408177
0.230108659923
0.232674322165
0.226988066834
0.21375612396
0.194982546701
0.173622146504
0.153069115038
0.136569759906
0.126660901604
0.124731041134
0.130780178494
0.143419812685
0.16011312321
0.177613802466
0.192527658784
0.201899880717
0.203726415107
0.197301031924
0.183338059237
0.163849559521
0.141798177061
0.120585674074
0.10346558347
0.0929815266535
0.0502251401755
0.0574029168768
0.071455584441
0.0897542075451
0.10893492117
0.125480279026
0.136327169181
0.139396185871
0.133950927213
0.120725095743
0.101795427455
0.0802224233322
0.0595210061499
0.043052632491
0.0334439707093
0.03213266175
0.039118705613
0.0529644613533
0.071043260617
0.0899936468213
0.106300697191
0.116903910742
0.119726551482
0.114034916873
0.100565408799
0.0813974330247
0.0595941014809
0.0386728604582
0.0219975749754
0.0121971803554
