# vtk DataFile Version 2.0
Function: z = f(x,y,z)
ASCII
DATASET STRUCTURED_POINTS
DIMENSIONS 30 30 1
ORIGIN 0 0 0
SPACING 0.05 0.05 0.05
POINT_DATA 900
SCALARS density float
LOOKUP_TABLE default
0.0869370859485
0.228323021968
0.368998778735
0.506848323721
0.639627126735
0.765112877014
0.881261721082
0.986345504684
1.07904865667
1.15851017516
1.22430548834
1.27637315635
1.31490069536
1.34019063334
1.35253106993
1.35209396694
1.33887932438
1.31271518043
1.27331343545
1.22037156146
1.15370204231
1.07336631785
0.979788959888
0.873830970313
0.756807920271
0.63044796402
0.496794955033
0.358071204074
0.216521241334
0.0742610993418
0.117912077348
0.258201983497
0.401046090429
0.543162408712
0.680798536027
0.810151145912
0.927803327092
1.03110656699
1.11844361902
1.18932893887
1.24433128683
1.2848336467
1.31267352643
1.32972715671
1.33751055792
1.3368672711
1.32779729624
1.30945709232
1.28033063893
1.23854170542
1.18225278381
1.11008089032
1.02145726464
0.916867451093
0.797928696265
0.667289512733
0.528366811771
0.384963919841
0.240833239262
0.0992567594661
0.148722515018
0.288672772036
0.434441609873
0.581581082194
0.724830914549
0.858806764781
0.978718663813
1.08099774075
1.16372507357
1.22679057552
1.27175633899
1.30144977146
1.31935837265
1.32893207598
1.33291482254
1.33282173262
1.32865280622
1.31889292305
1.30079814201
1.2709185297
1.22576658639
1.1625149046
1.07960139195
0.977136135164
0.857038056291
0.722876026218
0.579440014022
0.43211436186
0.286159344182
0.146022907323
0.178878098739
0.31897492662
0.468154715357
0.620803561709
0.770153319098
0.909238629671
1.03189646655
1.13363760052
1.21224143411
1.26797333816
1.30338873714
1.3227594622
1.33122300485
1.33380300122
1.33447131313
1.33541464011
1.33663298215
1.33593963974
1.32936275103
1.31187867993
1.27834993491
1.2245046848
1.14778750517
1.04793302515
0.927161842223
0.789963185604
0.642500082167
0.491737889768
0.344444754984
0.206234581056
0.207858754442
0.348238988175
0.5009665628
0.659261618171
0.814848135584
0.959179741486
1.0847203512
1.18606037719
1.26067754654
1.30921268769
1.33521455716
1.34439940979
1.3435547289
1.33927785329
1.33676856555
1.33888514441
1.34562758987
1.35413762321
1.35921546183
1.35426376691
1.33249505517
1.28819307175
1.21780906012
1.12070219185
0.999394739863
0.859296291685
0.707942931996
0.553881034349
0.405386617448
0.269239541439
0.235149556463
0.375583698131
0.531629560726
0.695341327201
0.856935106719
1.00628351003
1.13447739466
1.23518681476
1.30558782196
1.34669670228
1.36305554432
1.36182502662
1.35144262426
1.34007937876
1.33416299344
1.33722332627
1.34926037725
1.36674428841
1.38324735644
1.3905985398
1.38036036341
1.34537214876
1.28109180722
1.18650305278
1.06442983382
0.921202096163
0.765728982305
0.608137881492
0.458212684558
0.323899208551
0.260276928995
0.400217333142
0.559033838253
0.727614670374
0.894668066543
1.04848562181
1.1787851359
1.27831630465
1.34395350424
1.37708847827
1.38325664744
1.37106311394
1.35059534465
1.33159808381
1.32172695546
1.3251833968
1.34196740784
1.36787755137
1.39525820335
1.41436461953
1.41510933305
1.3888872417
1.3301629248
1.23754463874
1.11415800733
0.967253334749
0.807112821266
0.645444871831
0.493541249407
0.360513727947
0.282840446054
0.421526213467
0.58235246188
0.755041460435
0.926793574041
1.08431938206
1.2159636264
1.31355564458
1.37366813735
1.39806830588
1.39328490296
1.36936745446
1.33805341903
1.31066124363
1.29607447303
1.29916612367
1.31993619556
1.35351167224
1.39100900896
1.42110975875
1.43207646295
1.41385959571
1.35993040423
1.26852168733
1.14306074427
0.991718237545
0.826149425225
0.659643727956
0.505000780829
0.372498314702
0.302535280178
0.439135611237
0.601140803331
0.7771071687
0.952727200123
1.11313046126
1.24528863623
1.34011070423
1.39386769055
1.40870225397
1.39213647934
1.3556643162
1.31267321502
1.27605532544
1.25592211298
1.2578181733
1.2817435064
1.32215351663
1.36893673846
1.40920102223
1.42955891751
1.41851647474
1.36855160906
1.2775216617
1.14915560738
0.992544466888
0.82071655611
0.648542311386
0.490329239936
0.357521029522
0.319161930929
0.452933022281
0.615373354705
0.793873283536
0.972617429424
1.13515434033
1.26708264258
1.35839095704
1.40504863357
1.40957378852
1.38048183882
1.33071115771
1.27529918741
1.2287117803
1.20228832262
1.20224498927
1.22858178025
1.27508252066
1.33040782426
1.38009183867
1.40909712166
1.40448530002
1.35774095679
1.26634597562
1.13433100668
0.971707429067
0.792876616479
0.614290020948
0.451763021823
0.31790526377
0.332622021915
0.463050232522
0.625412064235
0.805931915488
0.9872865348
1.15144345444
1.28262824292
1.36990916281
1.40895388851
1.40265599394
1.36052422814
1.29694138801
1.22859490756
1.17152434189
1.13829699795
1.13580062988
1.1640352377
1.21611306725
1.27946681157
1.33805691558
1.37519594525
1.37650110369
1.33246364187
1.24018998585
1.10401246125
0.934862805482
0.748515450044
0.563002862666
0.395648294826
0.260227348094
0.34290131707
0.469807689425
0.631912062924
0.814272879093
0.998059014325
1.16365698519
1.2939193024
1.37699387021
1.40824668757
1.39094678599
1.33559624658
1.25802228993
1.17656234182
1.10882966007
1.06861947237
1.06349111209
1.09344457923
1.15092054042
1.22212376796
1.28944100406
1.33453482291
1.34157800393
1.30006846601
1.20673717764
1.06621813987
0.89036344844
0.696320592647
0.503703055917
0.331341961858
0.194178868942
0.35004326526
0.473631157028
0.635681429977
0.820086568727
1.00650757754
1.1737499573
1.30329316091
1.3823647343
1.40602900098
1.37793045006
1.3095644947
1.21820277919
1.12383272109
1.04564128093
0.998651607133
0.9910946123
1.02297029643
1.08604774693
1.16530381536
1.24155154121
1.29480350689
1.30778806815
1.2690098118
1.17482424875
1.03016705547
0.847810686051
0.646275687567
0.44675655915
0.269592296536
0.130890415101
0.354117964428
0.474955371709
0.637519540205
0.824536997635
1.01416087613
1.18361566088
1.31300774698
1.38864432206
1.40528803416
1.36695882998
1.28614545479
1.18156397651
1.07485180452
0.986769602048
0.933568438248
0.924150804961
0.958516702185
1.02776363808
1.11564054349
1.2013867552
1.26336486382
1.28285880142
1.24737982274
1.15290798109
1.00468062841
0.816390577093
0.607931432018
0.402078708012
0.22067927294
0.0810065990848
0.355192169375
0.474131606483
0.638062184843
0.828544475269
1.02222373777
1.19474344182
1.32483692473
1.3978910158
1.40836668765
1.36065934453
1.26825106381
1.15130233708
1.03310056552
0.935980115051
0.877419975567
0.866994218141
0.904702842772
0.980971778386
1.0783220351
1.17441924697
1.24597601284
1.27283184111
1.24150465441
1.14759904848
0.99665405072
0.803282831816
0.588752054464
0.377418249186
0.192636155973
0.0528452040128
0.353305724907
0.471355315982
0.637660428344
0.832615675904
1.03135844654
1.20795119404
1.3397541979
1.4112339291
1.41654968483
1.36047232692
1.2574772648
1.12916941377
1.00048616676
0.895335592441
0.832424601412
0.821998843985
0.864058320162
0.948357379633
1.05618911179
1.16364544796
1.24578899523
1.28101483829
1.25484756771
1.16251632165
1.00986180294
0.812417540589
0.5928232551
0.377016492687
0.189859865472
0.050958759545
0.348458631025
0.466626500204
0.636314270707
0.83675059954
1.04156500245
1.22323891753
1.35775956648
1.42867306196
1.4298370257
1.36639777713
1.25382405776
1.11516520656
0.97700860826
0.864836034218
0.798582315782
0.789164682494
0.836583134355
0.929920441821
1.04924177355
1.16906535817
1.26280381097
1.30740779296
1.28740856264
1.19765980059
1.04430388506
0.843794703411
0.620145033923
0.400873438515
0.212350401436
0.0753472656814
0.340611042921
0.459749704521
0.633672647481
0.840442571903
1.05218112141
1.23978871838
1.37787952673
1.44907930081
1.44694398688
1.37699536197
1.25569549967
1.10753816261
0.960760727326
0.842418667882
0.773674736355
0.766117741522
0.819747683383
0.922975753161
1.05463919878
1.18768254617
1.29386841881
1.34870305405
1.33572437831
1.24941061457
1.09620581656
0.893484229914
0.666631690743
0.444747776655
0.255710844029
0.121458192762
0.329696205795
0.450373655915
0.62909976743
0.842771283539
1.06200197573
1.25611125071
1.39834021456
1.47039426332
1.46552766783
1.38963766267
1.26017965353
1.10309182672
0.948261550549
0.8243180018
0.753651853281
0.748523493
0.80893292096
0.922619749147
1.06719330476
1.214024411
1.33322569959
1.39885898418
1.39346885912
1.31115808979
1.15867240538
0.954306409848
0.724818997093
0.500890760423
0.311907928347
0.180973757667
0.315644021705
0.438063618008
0.621796255743
0.842572721204
1.06949891375
1.27031322439
1.41688370141
1.48999538252
1.48260086313
1.40097283539
1.26356003707
1.09774507818
0.935065318783
0.805723638395
0.733338630548
0.730842262485
0.798234534207
0.922583478469
1.08027050174
1.24109272451
1.3735127867
1.45014807831
1.45254986158
1.37444544434
1.22288223119
1.01707518444
0.78515625576
0.559387054174
0.370661680313
0.243249347884
0.298411041783
0.422393826765
0.610954033215
0.838656490523
1.07309922592
1.28043961471
1.43117264739
1.50516300336
1.49506160255
1.40751659473
1.26197004973
1.08724900125
0.916540801126
0.781622031593
0.707339206913
0.707295873562
0.781492031542
0.916324134374
1.08694566779
1.26158004958
1.40703992788
1.494498269
1.5045130031
1.43043598044
1.27961628106
1.07218922557
0.837659823466
0.609870699458
0.421223826307
0.297154374624
0.278011502097
0.403043834718
0.595917968843
0.830032776957
1.07147841417
1.28483124007
1.43921318737
1.51356857715
1.50024665389
1.40627102495
1.25207709223
1.06793631311
0.888686031224
0.747676531507
0.670982248954
0.672878309276
0.753364712474
0.898166332835
1.08120873537
1.26914163513
1.42712768849
1.52489543808
1.54200948198
1.47144621285
1.32085638619
1.11129568093
0.873642164367
0.643319476897
0.454237463417
0.33299725144
0.254543779038
0.379881855945
0.576326114393
0.816109469963
1.06381420563
1.2824356653
1.43972272387
1.5136993441
1.49641309505
1.39526304162
1.23167791784
1.03737360473
0.848837437729
0.700993404476
0.621143860698
0.624235511341
0.710268356405
0.864295690944
1.05901515923
1.25950277363
1.4292711987
1.53660455341
1.56007410375
1.4922807848
1.34117702752
1.12873886913
0.887217434753
0.653617380469
0.463356423307
0.344201647685
0.228207373043
0.353020394617
0.552203977768
0.796825081172
1.04995811568
1.27301740949
1.43237877971
1.50514583078
1.4830644563
1.37390917878
1.20010206431
0.994803417592
0.796150565851
0.640641199441
0.556805594818
0.560262036161
0.65101052347
0.813432772566
1.01899850699
1.2312100364
1.41193003356
1.52799819376
1.55699245093
1.49113828255
1.33868979501
1.12254338388
0.876323232064
0.638615011346
0.446344310882
0.328444171994
0.199307111575
0.322834178603
0.523996187243
0.772694139269
1.0304945734
1.25723080214
1.4179055848
1.48870216749
1.46106476838
1.34314336755
1.15835336318
0.941299483639
0.731769047947
0.567833449168
0.479250884486
0.482311217317
0.577014447659
0.7470707121
0.962721813453
1.18589635865
1.37680702869
1.50084909518
1.53460715995
1.46993124292
1.31537712593
1.09476156284
0.843081794373
0.600504508009
0.405463165029
0.288056763663
0.168243420619
0.289936887644
0.492529676318
0.74475683151
1.00667701981
1.23654253803
1.39798308767
1.46626155653
1.43252048732
1.30528531773
1.10896477799
0.879608020181
0.658652355081
0.485742878476
0.391865708281
0.393982287143
0.492092615062
0.669235249391
0.894424072214
1.12801398775
1.32856768521
1.46003601253
1.49801023945
1.43396492832
1.27675753641
1.05112517591
0.793438145335
0.545444147867
0.347084516917
0.229624207615
0.13548987598
0.255120245086
0.458914315877
0.714441176318
0.980251620869
1.21301693065
1.37499374935
1.44052460646
1.40045036925
1.26367193297
1.05559135996
0.813702225954
0.581091833531
0.398978981184
0.299577707557
0.300521034534
0.401808962113
0.585808468413
0.820305514789
1.06408130275
1.27404852971
1.41271361994
1.4546745111
1.39103030795
1.2309401432
1.00006148737
0.736137696776
0.482497490288
0.28059007345
0.162846358297
0.101561403324
0.219265509499
0.424397697396
0.683361098073
0.953198633865
1.18900057019
1.35165049294
1.41457057329
1.36830000306
1.22211513509
1.00241136379
0.748126688584
0.503998403825
0.312819010724
0.208030468656
0.207937378735
0.312539740963
0.503532954223
0.74747505914
1.00157355451
1.22109114597
1.3670898341
1.41317422448
1.35006796429
1.1872318617
0.951243745534
0.681220029901
0.422070449382
0.216752081645
0.0988617956283
0.0669780767179
0.183242139957
0.390198664953
0.653084825861
0.927435672888
1.16676045575
1.33056970255
1.39136522613
1.33938454288
1.18427946321
0.953438713617
0.687244717198
0.432084760099
0.232325046238
0.12263545572
0.121992168897
0.230395185767
0.428868325981
0.682741709434
0.947649132205
1.17720330815
1.33102181418
1.38171592378
1.31963382655
1.15453800611
0.913926649594
0.638289228921
0.374116494365
0.165873395722
0.048322758836
0.0322301963828
0.147810597425
0.35734784026
0.624913142141
0.904533681141
1.14813769129
1.31386264287
1.37328999043
1.31635557489
1.15308666426
0.911865317113
0.634518380224
0.369083131523
0.161499477642
0.0476652194166
0.0472281164302
0.160188168683
0.366897616591
0.631458659319
0.907931390235
1.14827853141
1.31067323607
1.36673344563
1.3064318921
1.13983273455
0.895354518426
0.614859773453
0.346420265599
0.136008816791
0.0195542097762
