# vtk DataFile Version 2.0
Function: z = f(x,y,z)
ASCII
DATASET STRUCTURED_POINTS
DIMENSIONS 30 30 1
ORIGIN 0 0 0
SPACING 0.05 0.05 0.05
POINT_DATA 900
SCALARS density float
LOOKUP_TABLE default
0.0972662446751
0.280437427887
0.462690574503
0.641290325403
0.81333521473
0.975952499301
1.12650012463
1.2627441352
1.38298391466
1.48610646057
1.57156293622
1.63927391932
1.68948180884
1.7225776775
1.73893394682
1.73877290888
1.72209456367
1.68867661913
1.63814665373
1.57011359473
1.48433504321
1.38089042141
1.26032856606
1.12376247961
0.972892778396
0.80995341794
0.637586452729
0.458664625944
0.276089403443
0.0925961443463
0.106934514912
0.288879446883
0.474126150597
0.65843205435
0.83694649173
1.00475296755
1.15743449896
1.29156739895
1.40506108047
1.49728788869
1.56898305031
1.6219343249
1.6585170276
1.68115652979
1.69181256513
1.69157556472
1.68044552856
1.65733202556
1.62027532204
1.56685004663
1.49468088419
1.40198007516
1.28801239282
1.15340549201
1.00024995979
0.831969483148
0.652981044951
0.46820114038
0.282480435849
0.100061503061
0.116542160091
0.297539507409
0.486058434809
0.676349158005
0.861611810026
1.03488614369
1.18998024776
1.32228070376
1.42930695393
1.51091669104
1.56912920523
1.60759943789
1.63083562037
1.64329742266
1.64853189061
1.64849759433
1.6431945338
1.63066413893
1.60735936388
1.56882053865
1.51053943189
1.4288611022
1.32176625946
1.18939721089
1.03423451425
0.860891588009
0.675560343415
0.485201027646
0.296613507673
0.115547567783
0.125908543289
0.306137439635
0.498107724404
0.694562400723
0.886752401068
1.06567372626
1.22335953667
1.35400668236
1.45474463486
1.52591643455
1.57082543499
1.5949937594
1.60506255533
1.60752579142
1.60751782567
1.60786536719
1.60856841597
1.60680026292
1.59742655002
1.57395330865
1.52973939125
1.45926267459
1.35921980512
1.22926774247
1.07227701509
0.894050772938
0.702555855629
0.506796262345
0.315521060612
0.135987247301
0.13484205827
0.314352916535
0.509824971563
0.712494013897
0.911661775455
1.09628050506
1.25660843471
1.38565268298
1.4801527507
1.54093702586
1.57259292544
1.58250975448
1.57946157677
1.57197665954
1.56677667297
1.56755646519
1.57431603618
1.58336053783
1.58796829997
1.57961105535
1.5495147402
1.49029004946
1.39734956616
1.26986490232
1.11109655709
0.928037411913
0.73042923478
0.52931977687
0.335407306267
0.157456032427
0.143152995578
0.321861263899
0.520750537321
0.729549393805
0.935610364713
1.12584194687
1.2887274439
1.41608424287
1.50426187395
1.55457407272
1.57289231958
1.5684731014
1.55222339816
1.53470577576
1.52422921651
1.52535670755
1.53808824888
1.55786085338
1.5763655387
1.58303973896
1.56697647419
1.51891925751
1.43299660852
1.30789479163
1.14726427668
0.959287676614
0.755481687791
0.548937813392
0.352303522056
0.175850235821
0.150666879917
0.328370794178
0.530475521879
0.745202428399
0.957954844541
1.15359751513
1.31883881542
1.44430640099
1.52595983131
1.56559818957
1.57037701959
1.55141999007
1.5217669972
1.4940149055
1.47806000946
1.47933343522
1.49783518277
1.52813412599
1.56033397037
1.58183785141
1.57960587291
1.54251436617
1.46340778736
1.3404870533
1.17779260453
0.984696785459
0.774491220833
0.562311165829
0.362753289644
0.187596226899
0.157236185924
0.333655414835
0.538695265527
0.759069890793
0.97823342088
1.17900684862
1.34632362087
1.46962166176
1.54447056003
1.57315474649
1.56411382838
1.53033865623
1.48700204244
1.44873515016
1.42702158603
1.42816061522
1.45215223771
1.49269718836
1.53831186052
1.57436509104
1.58568406751
1.55927793943
1.48670709952
1.36568711701
1.20064840312
1.00215303375
0.785267562031
0.567170995133
0.364409202811
0.190268032268
0.162748608744
0.337577068236
0.545245957846
0.770962217788
0.99623077775
1.20182887856
1.37091503872
1.49173745084
1.559475733
1.57689966358
1.55373291328
1.50483351442
1.44750719565
1.39841941871
1.37064110243
1.37133965097
1.40051506433
1.45099993834
1.5097233542
1.56001985013
1.58458369752
1.56855686401
1.50221567894
1.38279036389
1.21510130082
1.01090029708
0.787028834202
0.56270967134
0.356437878809
0.183006516397
0.167130648216
0.340094305474
0.550118201191
0.780902062994
1.01200162002
1.22215036109
1.39273187633
1.51080462688
1.5711582601
1.577047902
1.53948128669
1.47518362832
1.40359357174
1.34341087733
1.30929377608
1.30927781116
1.34336298257
1.40351374714
1.47507187389
1.53933760242
1.5768722879
1.57095071616
1.5105651531
1.39246047272
1.22184702764
1.01166635673
0.780534869867
0.549719078227
0.339663252674
0.166667665578
0.170346060406
0.341255679258
0.553445344908
0.7891075724
1.02584889031
1.24035903547
1.41224666963
1.52738052243
1.58016027055
1.57432638759
1.52217067109
1.44228551704
1.35624248648
1.28477563843
1.24413051604
1.24321080149
1.28201649478
1.35164391373
1.43584751519
1.51389324014
1.56420952755
1.5682039814
1.51358480419
1.39661152229
1.22288445904
1.00653488477
0.767954137763
0.530452481172
0.316423386423
0.143674338472
0.172389600448
0.341179249181
0.555468753052
0.795943414521
1.03826056161
1.25706617915
1.4301940005
1.54232302384
1.58746295514
1.56983961562
1.50302886622
1.40749028477
1.30692834852
1.22411141511
1.17687233987
1.17498294398
1.21844322744
1.29748136905
1.39426451352
1.48602430319
1.5490562608
1.56290080854
1.51398208545
1.39807427032
1.22116765719
0.99858324786
0.752487308988
0.508233855733
0.290165560078
0.117597119559
0.173277275818
0.340021875678
0.556486139014
0.801848155705
1.04981605321
1.27299206437
1.44743499417
1.5566341093
1.59420914503
1.56487127018
1.48348040913
1.37236332152
1.25735740083
1.16326530331
1.10950719646
1.10672304047
1.15491283534
1.24343662087
1.35287422959
1.45842300521
1.53424555428
1.55801511714
1.51487176943
1.40010434232
1.22009310054
0.991348777399
0.737812567909
0.486882239236
0.264849663918
0.0925367520758
0.173034912076
0.337943724782
0.556792009304
0.807250642937
1.06107855259
1.28883421909
1.46480151905
1.57127998769
1.60149938956
1.56065624111
1.46489453013
1.33840819809
1.20916755467
1.10400955477
1.04394167803
1.04047202366
1.09360059166
1.19181928282
1.3141206175
1.4336676408
1.52249004305
1.55639388276
1.51923517215
1.40581739478
1.22291078608
0.988215810834
0.727448592446
0.470050650076
0.244263056815
0.0724149353704
0.171687103094
0.335074212869
0.556620602798
0.812489937594
1.07249194361
1.30514134967
1.48294710402
1.58701901039
1.61019686263
1.5581625248
1.4483440481
1.30680255585
1.16364127393
1.04773145586
0.981667893456
0.977826824931
1.03620825028
1.1444359313
1.27991507617
1.41377443137
1.51591077102
1.5602629718
1.5294029825
1.41764893909
1.23216104769
0.991829504571
0.724145361508
0.460593889662
0.231365362681
0.0602961158551
0.169248528538
0.331485349538
0.556101259031
0.817752709147
1.08430022568
1.32221478547
1.50223040836
1.6042671666
1.62077488337
1.55792077032
1.43441694207
1.27819170376
1.12148119749
0.995190975414
0.923503141499
0.919662072974
0.983667769838
1.10227585486
1.25130422408
1.39984732534
1.51566901654
1.57084099254
1.54665113872
1.43693224343
1.24923448348
1.00363778664
0.729408133061
0.460074545895
0.22777649935
0.0578575412991
0.165719188408
0.327177134789
0.555233978003
0.823038957595
1.0965033988
1.34005452647
1.52265143206
1.62302445634
1.63323345179
1.55993097767
1.42311321202
1.25257564182
1.08268732535
0.946388113425
0.869447422157
0.865977767788
0.935979150318
1.06533905351
1.22828806123
1.3918863227
1.52176477961
1.588127945
1.57097964081
1.46366730778
1.27413109345
1.02364065705
0.743236907104
0.468492618774
0.233496466822
0.0650992117027
0.161084403039
0.322077559022
0.553889420179
0.828162013469
1.10885746357
1.35835924333
1.54385151585
1.6428748904
1.64709924875
1.56366249778
1.41384487896
1.22930906107
1.04655701864
0.900562901079
0.818683436679
0.815899280688
0.892210433106
1.03263623869
1.20981996914
1.38878747504
1.53303678187
1.61090522087
1.60111255053
1.496520864
1.3054602795
1.05039018776
0.764126425673
0.4842855204
0.246905347262
0.0803438792963
0.155319578556
0.316057205863
0.551833346682
0.83278281539
1.12091853611
1.37658022969
1.56517713085
1.66306011738
1.66150910036
1.56814733426
1.40553912398
1.20721432014
1.01180781346
0.856328051984
0.769719076172
0.76782968028
0.850659864306
1.00236083399
1.19398854889
1.38853456094
1.54736397943
1.63694695375
1.63471917899
1.53305740067
1.34068170773
1.08124122236
0.789326709857
0.504598449363
0.265043516759
0.100527097667
0.148398889403
0.308955909277
0.548771251003
0.836472516375
1.13212342896
1.3940199576
1.58579640865
1.6826139284
1.67536245725
1.57215059727
1.39682671678
1.18478784823
0.976801798543
0.811911314402
0.720647748424
0.719728033874
0.809152170754
0.972203225795
1.17834984638
1.38854928583
1.56203373722
1.66340616811
1.66881821016
1.57016126131
1.37654538116
1.11280942342
0.815319081738
0.525778387267
0.284123616442
0.121727167469
0.140306328101
0.300616808831
0.544405419752
0.838792550074
1.14189272281
1.4099581548
1.60484822402
1.70053434529
1.68751648829
1.57438860272
1.38628312031
1.16046425533
0.93983273093
0.765465592411
0.669481504553
0.669465539634
0.765417697655
0.939752906338
1.1603525009
1.38613943604
1.57421298861
1.68730894435
1.70029487151
1.60457682041
1.40965482135
1.14155745952
0.838425356948
0.544006296789
0.30018575603
0.139843345463
0.131047139517
0.29092184493
0.538494488873
0.839378247974
1.14973844469
1.42378354386
1.62159799508
1.71596348169
1.69699000268
1.57375685533
1.37268053483
1.13289243726
0.899426201965
0.715393172893
0.614499326984
0.615197875524
0.717488818513
0.902918944664
1.13778227703
1.37896747169
1.58144088927
1.70607113369
1.72644170979
1.63347332025
1.43705596611
1.16440796402
0.855444864388
0.555958202367
0.309782655503
0.15130504717
0.120657567585
0.279822464868
0.530905109019
0.838011464084
1.15535765196
1.4351083855
1.6355731859
1.72834400504
1.7031408712
1.56952842928
1.35520723786
1.10117587488
0.854600895886
0.660627943449
0.554550306674
0.555689335858
0.664045031002
0.860296041808
1.10914907917
1.36545850052
1.5820577503
1.7179482506
1.74542944281
1.65493668204
1.45674994
1.17927726483
0.864209135323
0.559380838626
0.310576252843
0.153689413929
0.109211112467
0.267360117548
0.521646677837
0.834669544796
1.15869563976
1.44384592359
1.64665498912
1.73752505672
1.70578618398
1.5614883634
1.333616217
1.06503550454
0.805045697771
0.600826737898
0.489259226187
0.490532651945
0.604647015172
0.811412826561
1.07394948484
1.34507704883
1.57549604674
1.72234071883
1.75662644309
1.66830322701
1.468041013
1.18543758068
0.86395833723
0.553482321787
0.301742613014
0.146140459449
0.0968200790158
0.253672860606
0.510883005745
0.829542053308
1.15996772408
1.45023722692
1.65511022627
1.74379921104
1.7052442681
1.54998073759
1.30827730492
1.02486691169
0.751181945858
0.536436647259
0.419098929323
0.420226420366
0.539819120387
0.756819401072
1.03275934899
1.31842472431
1.56238313906
1.71990165166
1.76071157668
1.674277574
1.47165955673
1.18364503598
0.855474347294
0.539070281816
0.284115118764
0.129517319259
0.0836319925958
0.238986786581
0.498918752453
0.823012216505
1.15963569897
1.45482265669
1.66155782576
1.74786396358
1.70229118634
1.53586018177
1.28012369872
0.981681860596
0.69409997159
0.46862657015
0.345316881874
0.346096674086
0.470965946787
0.697998932651
0.987140406082
1.28714182863
1.5444378961
1.7124284851
1.75956084676
1.67481429337
1.46963870872
1.17601133542
0.840947437388
0.51841355776
0.260041176313
0.106245966752
0.0698213285033
0.223593583018
0.486162817759
0.815606146438
1.15834288872
1.45836274947
1.66687553639
1.7507142754
1.69803911199
1.5203560815
1.2505019962
0.936944161328
0.63538079728
0.399094741136
0.269728530655
0.270076072172
0.400137365689
0.637118504869
0.939376951952
1.25362986986
1.52417903819
1.70255715172
1.75592739816
1.67278374219
1.46496603831
1.16564126059
0.823599601343
0.4948513557
0.232977203994
0.0799000325147
0.0555777961936
0.207817924129
0.47307484063
0.807918446824
1.15681886182
1.46172203849
1.67206285615
1.75348460923
1.69375747255
1.50487282903
1.22095155437
0.892328135639
0.57683370944
0.329785411481
0.194413091686
0.194378795399
0.329682522621
0.576662228007
0.892088061633
1.22064288779
1.50449556987
1.69331162082
1.75297016493
1.67147981927
1.46107040905
1.15609863981
0.807129632234
0.472217433467
0.206891924393
0.0545832038848
0.0410930019027
0.191980136941
0.460103868884
0.800526886275
1.15577010767
1.46573573394
1.67808371601
1.75726761686
1.69066764058
1.49076051771
1.19295118738
0.84944131847
0.520194963802
0.262563557711
0.121364262283
0.121127261875
0.261852556485
0.519009961759
0.84778231561
1.1908181837
1.48815351322
1.68758663527
1.75371261073
1.67405470907
1.46123272617
1.15079309909
0.795075876876
0.454178858667
0.185581125907
0.0342199900515
0.0265475825536
0.176360391283
0.447629605256
0.793910700434
1.15577539482
1.47108213727
1.68571595035
1.76294066555
1.68974651626
1.47909558063
1.16767686122
0.809559208716
0.466839592167
0.198903744532
0.052156140061
0.0519951021186
0.198420630705
0.466034402455
0.80843194312
1.16622751973
1.47732416327
1.68765302301
1.76052509642
1.68297830533
1.46802241636
1.15239359803
0.790206827759
0.443603656697
0.172012366838
0.0218774822248
