# vtk DataFile Version 2.0
Function: z = f(x,y,z)
ASCII
DATASET STRUCTURED_POINTS
DIMENSIONS 30 30 1
ORIGIN 0 0 0
SPACING 0.05 0.05 0.05
POINT_DATA 900
SCALARS density float
LOOKUP_TABLE default
0.064557242041
0.115408475811
0.165999887903
0.215557320075
0.263259602745
0.308293695391
0.349911846739
0.387481805235
0.420522264359
0.44871822342
0.471914351275
0.490088169921
0.503308282834
0.511685370976
0.515324836662
0.514289592747
0.50857963923
0.498132063258
0.482841462514
0.462597156037
0.437330540353
0.407064093461
0.371953146506
0.33231270018
0.288624061001
0.241519480525
0.191746710024
0.140118790022
0.0874568900992
0.0345351684988
0.141696795959
0.191734146161
0.242705960065
0.293411509828
0.342477965336
0.388513865685
0.430269121387
0.466774764426
0.497439119219
0.522084547605
0.540919132615
0.554448843935
0.563345940571
0.568296848381
0.569856208972
0.568332634916
0.563726126214
0.555728070293
0.543783825545
0.527206966113
0.505325232992
0.477632656495
0.443921153591
0.404368362441
0.359565958627
0.310482910166
0.258369306547
0.204616608672
0.150597646657
0.0975131483435
0.218446617359
0.269461512063
0.322605155847
0.376250251271
0.428472307683
0.477301443806
0.52098523193
0.558217987581
0.588297666111
0.611183991889
0.627448462123
0.638125494186
0.644491002615
0.647807158161
0.649077841724
0.648857365597
0.647145729779
0.643388621977
0.636582161293
0.625464176975
0.608758754486
0.585431476453
0.554910845667
0.517237137761
0.473112397383
0.423842309004
0.371179300337
0.317093252658
0.263508656619
0.21205280966
0.29364546888
0.346789481755
0.403256529089
0.460992743843
0.517521974831
0.570295920397
0.617059814612
0.656171256545
0.686817832483
0.709096629324
0.723942558452
0.732918484928
0.737903978818
0.740736955771
0.742870535977
0.745104731447
0.747439542183
0.749074956171
0.748557853221
0.744050317687
0.733672779499
0.7158623736
0.689684188603
0.655041137611
0.612745634337
0.564440079712
0.512379239665
0.459111415852
0.407112759459
0.358437137525
0.366061596148
0.421658810062
0.481773343814
0.543924760766
0.605085249196
0.662128087074
0.712296170248
0.75361038133
0.785147937543
0.807143288314
0.820894759204
0.82849366296
0.83242322518
0.835097106407
0.838417666123
0.843430616059
0.850135956216
0.857487974861
0.863584312513
0.86601130863
0.862285737612
0.850316286714
0.828804630373
0.797516319163
0.757374135861
0.710357197856
0.659222609298
0.607097092219
0.557008458339
0.511437144298
0.434475438379
0.491982305633
0.555200778105
0.621223849557
0.686472047732
0.747240230223
0.800268954659
0.843242387193
0.875127375983
0.896295732986
0.90840919794
0.914087531278
0.916417614131
0.918388851934
0.922352843462
0.929601000166
0.940133322047
0.952658397651
0.964824628207
0.973642608277
0.976025456731
0.969353413137
0.951964737755
0.923487618628
0.884955207601
0.838683338519
0.787931453751
0.736404695708
0.687682536644
0.644671982798
0.497765368665
0.555884834233
0.620910190397
0.689507861321
0.757546714213
0.82074318629
0.875335496959
0.918671095918
0.949606462257
0.968650770464
0.977829174455
0.980289882348
0.979723430804
0.979694970156
0.983005338469
0.991191646913
1.00425389549
1.02065497303
1.03759404146
1.05150595045
1.05870016335
1.05602847203
1.04146572258
1.01450274051
0.976283046731
0.929459191543
0.877792955539
0.825567901504
0.776915162228
0.735168313549
0.55498300967
0.611912943837
0.676943053979
0.746313194661
0.815340572557
0.879163204505
0.933516971693
0.975412607362
1.00359622154
1.01871435124
1.02315556455
1.02059651728
1.01533140163
1.01150111281
1.0123557282
1.01967805867
1.03346810423
1.05194305398
1.07185283057
1.08905653878
1.09925998641
1.09878651765
1.08524756442
1.05799658969
1.01828748344
0.969109512434
0.914726795479
0.860001315738
0.809615866536
0.76733059331
0.60540640162
0.659179121073
0.722246301881
0.790421229009
0.858469448596
0.920950557103
0.973098097499
1.01158608657
1.03505026526
1.04427453314
1.04201087246
1.03246438672
1.02053292365
1.01093312336
1.0073643025
1.01185497168
1.02440513091
1.04298626957
1.06389907101
1.08242689512
1.09367189416
1.09342896466
1.07894612433
1.04943947363
1.0062732716
0.952773501462
0.893706620244
0.834513031484
0.780427189044
0.735635807959
0.648563043474
0.697416908698
0.756759520655
0.821977594711
0.887285016472
0.946662962021
0.994842636107
1.02816133905
1.04514444276
1.0467132093
1.03598303511
1.01768747138
0.997328021368
0.980197070083
0.970443173464
0.970340541845
0.979889175225
0.996814863273
1.01696905005
1.03505935054
1.04558426148
1.04381023171
1.02662186477
0.993097898581
0.944712961257
0.88512975247
0.819617067471
0.754193730176
0.694645854981
0.645586726519
0.684219938519
0.726938431259
0.781339956112
0.842384658845
0.903734764527
0.958793028865
1.00178831839
1.02872121696
1.03800672742
1.03070347437
1.01029026842
0.982029108454
0.952025153247
0.926146532714
0.908991042084
0.903078591409
0.908409180689
0.922462899872
0.940641953729
0.957078212347
0.965666516942
0.961144868646
0.940034456839
0.901276656913
0.84645646604
0.779573300351
0.706398293319
0.633528689236
0.567302263033
0.512758868943
0.712343369751
0.748502643286
0.797539234313
0.853986719
0.91095566188
0.961270398286
0.998657456524
1.01878070401
1.01994477449
1.00334565513
0.972825570699
0.934174967767
0.894102660646
0.859052524143
0.834071592779
0.821925476326
0.822614174783
0.83337207838
0.849152152594
0.86351052262
0.86973837414
0.862045260601
0.836588957207
0.792173476819
0.730494185673
0.655887216362
0.574626040574
0.493886322981
0.420557499048
0.360105992606
0.733036242383
0.763117933287
0.807271227062
0.859603130277
0.912672546931
0.958725391977
0.990985855505
1.00478108847
0.99830535556
0.972892006453
0.932746680118
0.884188270797
0.834529248336
0.790789232437
0.758464496914
0.740566351257
0.737094795465
0.74503852005
0.758901251196
0.771663369203
0.776012404223
0.765629462016
0.736308903609
0.686717379333
0.61866062449
0.536811488129
0.447945780161
0.359817585631
0.279868000542
0.213990018323
0.746464577858
0.771813940048
0.812429190488
0.861990766148
0.912505910491
0.955642118096
0.98412124083
0.992933713188
0.980163430803
0.947281105873
0.898855791547
0.841734829753
0.783834345869
0.732749704491
0.694426418725
0.672121497781
0.665834941658
0.672309741146
0.685600383141
0.698111503046
0.701926975483
0.690199458524
0.65835989902
0.604937584773
0.531848620149
0.444102570655
0.348977584423
0.254806166874
0.169581074545
0.0996218704659
0.752786479651
0.775422625981
0.814518945939
0.863329306897
0.913309291784
0.955547974801
0.982264869595
0.988113694204
0.971067975194
0.932735787296
0.878049597832
0.814385196419
0.750262363965
0.693852209963
0.651549486807
0.626856903429
0.619774459828
0.626799447075
0.641537112773
0.65581634743
0.661117370137
0.65006439128
0.617724943533
0.562490952168
0.486388890618
0.394765040846
0.295399889202
0.197204361488
0.108722874774
0.0367015616879
0.752096317041
0.774406909944
0.814371961854
0.864818770544
0.916651258409
0.96038007927
0.987722408558
0.992995247851
0.97406175465
0.932667366216
0.874107964049
0.80628778545
0.73833026686
0.678982262666
0.635087764555
0.610395181177
0.604904512532
0.61486734997
0.633439701804
0.651874713646
0.661048949058
0.653058170736
0.62260649718
0.567948491131
0.491220995087
0.39810700747
0.296889352849
0.197057377403
0.107707158737
0.0360113990778
0.744394090028
0.768766791937
0.811988238233
0.866459157089
0.922531810364
0.970138431504
1.00049385772
1.00757837413
0.989144769171
0.947075842635
0.887030890197
0.817442596846
0.748038054554
0.688139862602
0.645041251969
0.622736331024
0.621225099768
0.636513449832
0.661308150234
0.686286601696
0.701721712245
0.699180796892
0.673004559961
0.621310201661
0.546344933557
0.454128470528
0.353445975364
0.254365214619
0.166533926434
0.0975513826354
0.729585429332
0.758039353101
0.806536306637
0.867050448512
0.929382380051
0.982885914324
1.01827355032
1.0291888567
1.01327425284
0.972549901056
0.913038511202
0.843701215952
0.774868762812
0.716439495955
0.676155885654
0.658257739997
0.662745058984
0.685378034526
0.718414196352
0.751955200286
0.775670298826
0.780598359296
0.760716671843
0.714005074147
0.642821146837
0.55352132125
0.455393098396
0.359082665206
0.274789420356
0.210539205272
0.70751223148
0.741392631026
0.796510345718
0.864412964529
0.934349428249
0.995095129571
1.03686022926
1.05295157953
1.04090123069
1.00286670757
0.945234134216
0.877493090985
0.810577980912
0.754962893068
0.718839537015
0.706693420562
0.718524543708
0.749847398646
0.792470275812
0.835919086136
0.869259426584
0.883001716793
0.870759832735
0.830376249559
0.764318916959
0.679280982731
0.585052286104
0.492857434386
0.413447486788
0.355274854335
0.678008475027
0.717796986925
0.780017099347
0.855789831668
0.933812464144
1.00228196909
1.05090616905
1.07265519979
1.06495074253
1.03008768465
0.974815564372
0.909152409735
0.844636279304
0.792317007047
0.760835541816
0.754923091141
0.774579655022
0.815074025929
0.867765255009
0.921603508297
0.965050727227
0.98808888375
0.983968439661
0.950394507579
0.889945406264
0.809650999969
0.719803466143
0.632205832471
0.558160818699
0.506547405451
0.640971254763
0.686244032289
0.755142695719
0.838361694828
0.924046649337
0.999816111184
1.0548755647
1.08185842917
1.07807601677
1.04596057742
0.992625063494
0.928615950726
0.866074953215
0.816627649822
0.789364228692
0.789261597073
0.816319754965
0.86556179512
0.927897529392
0.991701378921
1.04483162961
1.07674180573
1.08031895488
1.05313082717
0.99786611042
0.921891385335
0.836001167588
0.75257690524
0.683472978572
0.637994937807
0.596434287688
0.645974812591
0.720335508776
0.809784256421
0.90191501471
0.983767915205
1.04404610402
1.07504628397
1.07396939819
1.04338505911
0.990769633278
0.927198044128
0.865415661285
0.817623808504
0.793361913221
0.797852582405
0.831095816056
0.887869007206
0.958632728417
1.03118565594
1.09278242013
1.13234809759
1.14240632174
1.12038748015
1.0690906297
0.996219067576
0.913069647655
0.832602238379
0.767222880562
0.726663694027
0.544630570518
0.59667720328
0.674738292704
0.768655149367
0.865470071919
0.951644771546
1.01538005614
1.04863591207
1.04850291338
1.01768803504
0.964031057797
0.899135352748
0.836349945055
0.788451903369
0.765429894417
0.772752224887
0.81041889478
0.872961597407
0.950391666041
1.02993203203
1.09823367022
1.14369320949
1.15847086912
1.13985967413
1.09076905048
1.0192390118
0.937068750184
0.857796554462
0.794380125979
0.756978154158
0.486032604292
0.538617661601
0.618411460951
0.71482874332
0.814360146824
0.90288896227
0.968113659327
1.00165750791
1.00050071301
0.967487612114
0.910821400138
0.842633895877
0.776877780022
0.726905866118
0.703156060184
0.711342368629
0.751464791451
0.817809322244
0.899938054987
0.984498176136
1.057537005
1.10692272279
1.12445213458
1.10728090288
1.05842882271
0.986272624154
0.903113837538
0.823069172058
0.759647989597
0.723435549176
0.421362348786
0.472683700928
0.552408080489
0.64952365885
0.749969413591
0.839050215142
0.903962194953
0.935991906484
0.932009185648
0.894995732477
0.833518156057
0.76023672287
0.689707769139
0.635859853303
0.609580120674
0.616828277378
0.657604323415
0.72594855266
0.810973819799
0.898751566394
0.974725456222
1.0262352228
1.04471425705
1.02718085892
0.97676519252
0.902180704377
0.816231263045
0.733611998092
0.668383931939
0.631558893205
0.351568181335
0.400328773282
0.478686678028
0.575203497353
0.675266548303
0.763602280931
0.826904488468
0.856123007915
0.848017306121
0.805706445646
0.738120449754
0.658448032614
0.581849185979
0.522828213183
0.49272149883
0.497734448766
0.537867062992
0.60691393566
0.693538682167
0.783236999179
0.860848894944
0.913185655291
0.931317256958
0.912124637383
0.858848329719
0.780538496963
0.690501345885
0.604010426433
0.53567842156
0.496943729485
0.277771728846
0.323428012901
0.399875895133
0.495250407724
0.594387207186
0.681434323194
0.742583210758
0.768446990424
0.755674759973
0.707522944497
0.633284981435
0.546678032644
0.463465745407
0.398728167955
0.36425092418
0.366485119651
0.405430754366
0.47463672276
0.562317400938
0.65339274067
0.732099094672
0.78471930109
0.801959922482
0.780564533757
0.723884037134
0.641305312067
0.546636903546
0.455730781896
0.383751290605
0.342563397491
0.201192552105
0.244068611135
0.318930553721
0.413486842446
0.512021473286
0.598104055541
0.657423706001
0.680256828753
0.663142152513
0.609473464903
0.52890761754
0.435690219965
0.346188574994
0.276058475752
0.237534785424
0.237314309296
0.275397047369
0.345086194357
0.434146887072
0.526923332392
0.6070482275
0.660275962855
0.676949686839
0.653675611833
0.593915009118
0.507391474607
0.408415891512
0.313418650532
0.23811575569
0.194798744406
0.123062405484
0.164309813159
0.238737389769
0.333627028298
0.432711064187
0.518980686359
0.577622673385
0.598576712892
0.578271164533
0.52023717846
0.434495020464
0.335818747776
0.241179318741
0.166808271379
0.125389708167
0.123866134112
0.162237549212
0.233561448463
0.325153729386
0.420782853963
0.503477863847
0.558464701809
0.575723102057
0.551721914438
0.490032779301
0.400716009018
0.298584825017
0.200648038376
0.123173313655
0.078878757869
0.0445425263462
0.0859527107342
0.161737349437
0.258751765838
0.360176634845
0.448424725003
0.508180476662
0.529046860994
0.507341868585
0.446734012117
0.357606971558
0.255263251824
0.157277466794
0.0804568993808
0.0379348913537
0.0368996474385
0.0773511676351
0.152101247218
0.248016544418
0.34828977632
0.435346329049
0.493883697687
0.513518202266
0.490581330103
0.428755090614
0.338436512625
0.234941155788
0.135856251555
0.0580011250225
0.0145204528041
