# vtk DataFile Version 2.0
Function: z = f(x,y,z)
ASCII
DATASET STRUCTURED_POINTS
DIMENSIONS 30 30 1
ORIGIN 0 0 0
SPACING 0.05 0.05 0.05
POINT_DATA 900
SCALARS density float
LOOKUP_TABLE default
0.0559496097688
0.0719798042119
0.087923391429
0.103522318673
0.118502862749
0.132594010151
0.145546510454
0.157149613139
0.1672428827
0.175721318907
0.182533144711
0.187670867446
0.191157354937
0.193029500838
0.193322439253
0.192057141134
0.189233606482
0.184830864344
0.178813780616
0.171145461644
0.161803039602
0.150794007158
0.138170141359
0.124036442437
0.108553345897
0.0919316022581
0.0744204619443
0.0562909384632
0.0378167550088
0.0192559643285
0.150844764655
0.16616959334
0.181805909925
0.197353471796
0.212354668916
0.226345680983
0.238909811501
0.249724071131
0.258591234679
0.265452089425
0.270375996379
0.273531612103
0.275143022932
0.275439037486
0.2746045363
0.272742390232
0.269852599281
0.265832292591
0.260496589626
0.253616681766
0.244968482676
0.234383335794
0.22179188011
0.207253328344
0.19096490569
0.173249601486
0.154524112231
0.135252258223
0.115891649502
0.0968425286809
0.245263579798
0.262072565919
0.279591135067
0.297276854762
0.314488228119
0.330568628047
0.344933911975
0.357148851745
0.366979432475
0.374412228954
0.379637740252
0.38300077216
0.384926629523
0.385836035925
0.386063618332
0.38579414751
0.385027623457
0.38357927541
0.381114476402
0.377212502849
0.371448049906
0.363476311781
0.353106789406
0.340352907991
0.325448682418
0.308829340845
0.291079025842
0.272854364503
0.25479685371
0.237448925943
0.337786765088
0.357487387576
0.378295688217
0.399527044664
0.420356073189
0.439933339907
0.457507256175
0.472530355015
0.484731831857
0.494144049
0.501078643572
0.506056570594
0.50970435342
0.5126346306
0.515331775531
0.518062458884
0.520826680659
0.523357770184
0.525171354064
0.525654793748
0.524181565882
0.520230715445
0.513490605308
0.503928873174
0.491816323612
0.477700423599
0.46233276178
0.446562772038
0.431215838103
0.416976582321
0.426908842959
0.449897203095
0.474391336511
0.499564430994
0.52440721597
0.547877450761
0.569056100651
0.587283459844
0.602251934081
0.61403967317
0.623079452299
0.630068375716
0.635834185289
0.64118143453
0.646744243267
0.652871182078
0.659562250963
0.666468879343
0.672956947393
0.678221901597
0.68143600009
0.681902138623
0.679187542008
0.673214060437
0.664289288168
0.653072930999
0.640484023645
0.627564806784
0.61532455099
0.604590068475
0.511139239116
0.536751000827
0.564266630943
0.592717127386
0.620909332737
0.647608199527
0.671727246964
0.692494530435
0.709565665991
0.723064590951
0.733545218562
0.7418808023
0.749100302544
0.756200187771
0.763964324239
0.772823182433
0.782776762352
0.793394593513
0.803892809658
0.813274942307
0.820512031084
0.824730822512
0.825377403344
0.822327836261
0.815926505211
0.806945354809
0.796470865846
0.785738085791
0.775940172062
0.768046126739
0.58910707623
0.615756950036
0.644708787375
0.6748513963
0.704807732548
0.733149941857
0.758624097364
0.780346015634
0.797934523031
0.811559344384
0.821895530998
0.82999248558
0.837080387016
0.84434761875
0.852727793471
0.86273328157
0.874364083046
0.887107827508
0.90003090227
0.911944923885
0.921619713469
0.928005868313
0.930428337113
0.92871739504
0.92325421573
0.914922982618
0.904977622567
0.894845989839
0.885905128698
0.879266231089
0.659653226446
0.685138609364
0.71332405094
0.742956169364
0.772474033525
0.80025698237
0.824883642962
0.845357593047
0.861260869301
0.872808984063
0.880798126697
0.886453849137
0.891207548782
0.89643952404
0.90323313403
0.912182649049
0.923288069098
0.935955123878
0.949100454272
0.96134376187
0.971253649276
0.977604564552
0.979600318337
0.97702539829
0.970297767737
0.96041384893
0.948795014808
0.937061926423
0.926775514885
0.919189162005
0.721895294482
0.743811240241
0.768825339785
0.795542021436
0.82221646724
0.84703520935
0.868409428757
0.885230464387
0.897043563228
0.904110025128
0.90734717751
0.908156721539
0.908171273122
0.908963045633
0.911765144621
0.917253740291
0.925428832641
0.935614251469
0.946576891225
0.956744538535
0.964484577492
0.968395306931
0.967559399429
0.961715555138
0.95131852707
0.937476976299
0.921779721834
0.906040231522
0.892003323317
0.881064568896
0.775255779069
0.791449172704
0.81113881525
0.832786945163
0.854464857644
0.874166278055
0.890134941311
0.901149947521
0.906719753983
0.907151448056
0.903483495222
0.897293745873
0.890416034429
0.884614489228
0.881271962249
0.881146523604
0.884238173291
0.889788841201
0.896415675354
0.902354547411
0.905771622954
0.905089051589
0.899268367836
0.888002484335
0.871782943788
0.851830646086
0.829901856314
0.80800284911
0.788062329272
0.771618058346
0.819449906443
0.828433892312
0.841312222218
0.856404944752
0.871599468268
0.884696711336
0.893772962799
0.897495083947
0.895334742388
0.887644812992
0.8755848993
0.860909000932
0.845652170819
0.831770452263
0.820796443676
0.813570115073
0.810091466455
0.809520527805
0.810324700713
0.810547941874
0.808155198361
0.801392470551
0.789100154905
0.770925376552
0.747396467883
0.719846567609
0.690199386887
0.660654007148
0.633323020036
0.609886376962
0.854436466936
0.855693010156
0.86124199254
0.86926127281
0.877454372479
0.883429403322
0.88509520811
0.881006409312
0.870597884849
0.854268297101
0.833298387667
0.809618305398
0.785464321733
0.76298439494
0.74386086986
0.729015616417
0.718448634611
0.711238054518
0.705701531298
0.699691106681
0.69097050923
0.677609590091
0.658327607668
0.63272589958
0.601369587907
0.565704050178
0.527820443624
0.490110656467
0.454871167198
0.423924117092
0.880341233584
0.874459001079
0.873267302864
0.874801807796
0.876582150541
0.876023636083
0.870867661119
0.8595566093
0.841488568858
0.817107989683
0.787816751431
0.755721152184
0.723258681891
0.692769213785
0.666084839138
0.644209327779
0.627142679709
0.613881125097
0.602592572673
0.590937149202
0.576477364736
0.557106921193
0.531423938918
0.498983968019
0.460388920265
0.417196412005
0.371665046543
0.326379518893
0.28382019439
0.245951404178
0.897367121485
0.885990312487
0.879702132905
0.87639606173
0.873407846782
0.867959986255
0.857626430772
0.840737325162
0.816653967972
0.7858665966
0.749898228763
0.71103131177
0.67190455408
0.635049743892
0.602448718909
0.575187148865
0.553265033762
0.535596703863
0.520200321466
0.504544098373
0.485989326124
0.462253557409
0.431813774512
0.394179740034
0.349990155431
0.300914875872
0.249379950732
0.198162881821
0.149927921316
0.106781590228
0.905707368219
0.891303787326
0.882386930976
0.876708088293
0.871419120252
0.863549718255
0.850506386851
0.830507032051
0.802876162711
0.768149803743
0.727972110919
0.684801680778
0.641478440291
0.600726092621
0.5646762219
0.534496397771
0.510186620235
0.490579319647
0.473542911877
0.45635369376
0.436171738327
0.410538449038
0.37780967012
0.337449376662
0.29013305981
0.237642813549
0.182572133332
0.127891327758
0.0764485358507
0.0304924684861
0.905477314015
0.890965215314
0.882337936281
0.877204576175
0.872533109127
0.865160419745
0.852325566505
0.8321342166
0.803874089197
0.768126996716
0.726658232991
0.682102543789
0.637501074589
0.595769443522
0.559188981149
0.52900915702
0.505229971136
0.486601953946
0.470843774888
0.455039815833
0.4361489313
0.411536375524
0.379436854669
0.339268556317
0.291743761299
0.238756802424
0.183068621215
0.127842333063
0.0761099638383
0.0302624142827
0.896676958875
0.88497459645
0.87955514882
0.877885525377
0.876749813406
0.872792090725
0.863083969734
0.845618878809
0.819647747428
0.785798175521
0.74595659498
0.702933900801
0.659972456975
0.620179796596
0.585986996656
0.558725426613
0.538395086466
0.523664606758
0.512102910498
0.50060246459
0.485920905044
0.465247336865
0.436695328159
0.399637278997
0.354822259901
0.304256842496
0.250869414379
0.198015897736
0.148912205279
0.106091427618
0.879190962567
0.872766141017
0.873022329389
0.877284247208
0.882152094914
0.884077143532
0.879963559391
0.867692532045
0.846478201285
0.81699395455
0.781247361792
0.742225467236
0.703371853383
0.667985968291
0.638648635384
0.616773124025
0.602359434215
0.593994296589
0.589096887724
0.584367759563
0.576363329603
0.56209655362
0.539559861663
0.508079866291
0.468442427714
0.422766356379
0.374147485954
0.326134545418
0.282127334328
0.244801133161
0.852826087512
0.853323006069
0.860899029675
0.872736687986
0.885252294601
0.89470431375
0.89782946569
0.892396701154
0.877583370246
0.854108647916
0.824101242173
0.790724346471
0.757622761821
0.728287851248
0.705450184605
0.690604931163
0.68375209092
0.683396494607
0.686807572371
0.690493961187
0.690810860044
0.684595075489
0.669717899511
0.64546015716
0.612644498335
0.573501972301
0.5312958588
0.489767693602
0.452501163111
0.422313737668
0.817379418612
0.8253867442
0.840871269963
0.860873335693
0.88162536814
0.899193024744
0.910145579688
0.912139744888
0.904316080756
0.887439549754
0.86375999795
0.836616768026
0.809855879504
0.787160610374
0.77141127692
0.764184948317
0.765481624566
0.77372423649
0.786032467806
0.798723040524
0.807949935123
0.81037380892
0.803744815845
0.78729799344
0.761892781291
0.729872467481
0.694667777828
0.660213054893
0.630275871925
0.607815889131
0.772725182832
0.787724880568
0.810599873605
0.838248311869
0.866718735266
0.891883994442
0.910145917508
0.919048977559
0.917696945321
0.906900570765
0.889030838016
0.867603238988
0.846665011712
0.830091349141
0.820912313992
0.820786875346
0.829715033204
0.846037818483
0.866725168468
0.887901890205
0.905520745663
0.916066242928
0.917167397875
0.908013460532
0.889500660176
0.864084523708
0.83536322302
0.807463907465
0.784338037136
0.769087462108
0.718904589838
0.73940980408
0.76818840875
0.801996363907
0.836698322611
0.867974328718
0.892058764263
0.906383863524
0.910016607537
0.903813533784
0.890266764449
0.873067940674
0.856465519001
0.844526607348
0.840431014862
0.845919610532
0.860992394357
0.883908497348
0.91148811036
0.939664125474
0.964188086148
0.98136835124
0.988712798566
0.985364890643
0.972257646437
0.95195883167
0.928234064304
0.905403300487
0.887601887156
0.878073864252
0.656202413395
0.680060029178
0.712589130515
0.750403487599
0.789183866645
0.824417504717
0.852171337776
0.869765361282
0.876229766582
0.872466878666
0.86108995778
0.845966794293
0.831547063258
0.822089787558
0.82092452277
0.829874037789
0.848938332616
0.876294638354
0.908613399428
0.941635592954
0.970911543878
0.992573461833
1.00400808657
1.0043130931
0.994458290084
0.977123682051
0.956242333043
0.936327005998
0.921696934699
0.915738348955
0.585196154773
0.610001225826
0.64387587756
0.6832916903
0.723745543418
0.760531867184
0.789550151487
0.808008152967
0.814899273282
0.811171624934
0.799559606226
0.784107156756
0.769465170088
0.760084584071
0.75944470071
0.769450188808
0.790101048366
0.819492610581
0.854145573446
0.889608999113
0.921231994018
0.944970618564
0.958090474445
0.959643449163
0.950636141057
0.933860793488
0.913417916567
0.894013080024
0.880149404488
0.875355309631
0.506768209252
0.530318132591
0.563335731738
0.602150397151
0.642075121357
0.678211527833
0.706291660396
0.723411036865
0.728526269213
0.722631257448
0.708581537934
0.690597199498
0.673530354213
0.662023854894
0.659706749976
0.66856560817
0.688600429475
0.717824645183
0.752609206855
0.788311261679
0.820078697581
0.843691425734
0.856293909774
0.856892249692
0.846529833517
0.828111143429
0.805904135611
0.784807186586
0.769507303827
0.763675096875
0.422077704687
0.442787190835
0.473362447916
0.509990676523
0.547800982339
0.581702182047
0.607258873391
0.621454335373
0.623208390273
0.613560725614
0.595488015815
0.573386498934
0.552309505555
0.537091803455
0.531512187503
0.537639126314
0.555472619888
0.582944199609
0.616275070611
0.650630465114
0.680957052534
0.702858594815
0.713358417536
0.711416833177
0.698114019454
0.676466697368
0.650910269174
0.626535918189
0.60821453873
0.599758930204
0.33249551841
0.349700231291
0.377168810231
0.410946265958
0.445977817307
0.476979474173
0.499348388224
0.509955599642
0.507684141021
0.493619487391
0.470859451233
0.443976419832
0.418224942283
0.398631701328
0.389125238266
0.391855921619
0.406823751387
0.431878359047
0.463091203302
0.495435601409
0.523657004273
0.543183024608
0.550915849935
0.545770005222
0.528862457877
0.503322167718
0.473751983073
0.445435894053
0.423428681818
0.411685335643
0.239512224713
0.25360826561
0.278366267692
0.30968905182
0.342337949987
0.370836165292
0.390413403332
0.397828465469
0.391927594609
0.373842053292
0.346790792058
0.315522347419
0.285492486982
0.261919808455
0.248882599565
0.248613128743
0.261111395987
0.28414513287
0.313636051661
0.344365554654
0.370877874244
0.388424473915
0.39378640313
0.385832399348
0.365716219663
0.336679062713
0.303491222901
0.271629497127
0.2463325534
0.231697570859
0.144633301163
0.157028149005
0.180483053159
0.210758644619
0.242432368533
0.269834621208
0.288027662167
0.293658053953
0.285535249784
0.26483629971
0.234901292328
0.200654913383
0.167754148988
0.141609511818
0.126449036031
0.124586889963
0.136023073614
0.158443418648
0.187619890906
0.218141977716
0.244352692961
0.261327350899
0.265725862932
0.256371179009
0.234453845914
0.203327301104
0.167929285054
0.133929401458
0.106750205168
0.0906310651894
0.0492780378706
0.062161215853
0.0865025452736
0.117920467261
0.150808540116
0.179304353355
0.198302720428
0.204337965058
0.196182750775
0.175059915139
0.144430684806
0.109395894748
0.0758137495906
0.0492866769726
0.0341924574834
0.0329271593647
0.0454907826167
0.0694872589974
0.100538807917
0.133043001738
0.161141635834
0.179733875233
0.185358493279
0.176792652411
0.155263689101
0.124237279625
0.0888186105321
0.0548700923078
0.0279981666499
0.0125843924302
