# vtk DataFile Version 2.0
Function: z = f(x,y,z)
ASCII
DATASET STRUCTURED_POINTS
DIMENSIONS 30 30 1
ORIGIN 0 0 0
SPACING 0.05 0.05 0.05
POINT_DATA 900
SCALARS density float
LOOKUP_TABLE default
0.0611141891321
0.0980370071713
0.134769289313
0.170743319514
0.205356906747
0.238013821295
0.268165712225
0.295348928396
0.319210511695
0.339519461615
0.356161868649
0.369121248931
0.378447911675
0.38422302292
0.386523877699
0.385396612102
0.380841226131
0.372811583692
0.361230389755
0.34601647828
0.327119540052
0.30455605894
0.278439944447
0.249002197083
0.216595774959
0.181684329218
0.144816210792
0.106587649398
0.0676008360631
0.0284234868307
0.145355983437
0.181508325032
0.218345940009
0.254988294616
0.290428646768
0.323646591805
0.353725397433
0.379954487108
0.401899965403
0.419431564333
0.43270187812
0.442081951202
0.448064773516
0.451153724023
0.451755539903
0.450096537042
0.446176715441
0.439769759212
0.430468931178
0.417770852374
0.401182532866
0.380332928215
0.355069444198
0.325522348802
0.292125537452
0.255589586694
0.216831228821
0.176870868493
0.136715247795
0.0972449004785
0.229173402335
0.266505933605
0.305399547535
0.344660892667
0.382878675857
0.418608317503
0.450564703948
0.477790333246
0.499770372657
0.516475286715
0.528324173375
0.536075605376
0.540665253378
0.543018709267
0.543872152368
0.543632078362
0.54229848725
0.53946488335
0.534395087337
0.526163507325
0.513834472654
0.496649410584
0.474189223163
0.446483445853
0.414046911397
0.37783712174
0.339139190539
0.299397697396
0.260023935455
0.222211256173
0.311301987363
0.351068644083
0.39327219274
0.436406464171
0.478655614174
0.518150888201
0.553238791237
0.582714895933
0.605983432233
0.623115597194
0.6347969925
0.642173719194
0.646624128659
0.649496025703
0.651855031799
0.654287822422
0.656794397573
0.658788081776
0.659203253558
0.656692108111
0.649876294052
0.637609710338
0.619206755285
0.594596231836
0.564373910047
0.529744217267
0.492360648511
0.454091958326
0.416753990917
0.381852915444
0.390400494873
0.432954167275
0.478820540893
0.526180628857
0.572814035905
0.616427832549
0.655000142409
0.687079612736
0.711989536158
0.729901842256
0.741768636442
0.749123548062
0.753787609223
0.757530837656
0.76174829698
0.767206842467
0.773906474114
0.781080336654
0.787333366465
0.790895545817
0.789945842603
0.782950627477
0.768957795027
0.747795415673
0.720140196784
0.687443491113
0.651727175037
0.615284178045
0.5803348954
0.548698313969
0.465140958674
0.509889783711
0.55882711924
0.609821160689
0.660246961734
0.707387417945
0.748852271581
0.78294324449
0.808902691986
0.827003276172
0.838463606189
0.845204839687
0.849490689496
0.853513386269
0.858997435773
0.866889873073
0.877190698169
0.888952875996
0.900451900787
0.909495541889
0.913820086473
0.911504376887
0.90132980399
0.883023705681
0.857343726645
0.825988145035
0.791347218589
0.756138051741
0.722985590811
0.694021640375
0.534302051691
0.579833680554
0.630429629188
0.683645275312
0.736451121547
0.785705888517
0.828650937121
0.863341063804
0.888937686567
0.905814200032
0.915455717072
0.92017092364
0.922666213289
0.925556029594
0.93089432047
0.939808300776
0.952297970512
0.967236114819
0.982568785783
0.995681539826
1.0038679834
1.00481943054
0.997050768394
0.980188602323
0.955071514331
0.923644707973
0.88866682235
0.853279136838
0.820511148816
0.792807480565
0.59685109638
0.641203210048
0.691495452764
0.744970384542
0.798193956944
0.847600715651
0.890063640201
0.923390601636
0.946662080643
0.960352204366
0.966212589407
0.966939450023
0.965681860489
0.965476477304
0.96870669053
0.97667989482
0.989396090174
1.00554788194
1.02275188005
1.03797142802
1.04805745156
1.05031373641
1.04298866599
1.02560811313
0.999091597159
0.965631247033
0.92835408321
0.890825560012
0.856479725876
0.828074020788
0.652001958765
0.693031968741
0.740877917043
0.79246954598
0.843968256054
0.891384418002
0.931222630002
0.961043837694
0.979847584449
0.988208729935
0.988145394481
0.98274132065
0.975588263437
0.970145092267
0.969124639347
0.974014479125
0.984814611602
1.00003746233
1.0169701991
1.03215395249
1.0419969675
1.04341550157
1.03439143437
1.01434990623
0.984291373788
0.946654891397
0.90493586088
0.863123911499
0.825057642753
0.793807312334
0.699240137712
0.7350298143
0.778511238493
0.826301334892
0.874156952941
0.917664288434
0.952959558188
0.977356782441
0.989774567247
0.990888504799
0.982983219155
0.969529981179
0.954563226593
0.941964037741
0.934774688978
0.934662934549
0.941628774451
0.954004454444
0.968747700171
0.981977429287
0.989659206072
0.988321759661
0.975680465995
0.951059732883
0.915540954269
0.871810109916
0.823730983008
0.775717377749
0.732012444697
0.69599925925
0.738311925688
0.76753661568
0.805328862555
0.847992773208
0.890880646023
0.929154501853
0.958582176153
0.976230763757
0.980937933408
0.973480009817
0.956408120773
0.933581065445
0.909475960276
0.888396100534
0.873713202721
0.867275200875
0.869082094995
0.877285951045
0.888515052522
0.898466104158
0.90266198951
0.897243909408
0.879660736065
0.849136144769
0.806832466777
0.755682607254
0.699918730747
0.644378816401
0.593710565835
0.55160987215
0.769180608625
0.791378790034
0.823020337604
0.860096540524
0.89755514612
0.9301340003
0.953232557158
0.963670986128
0.960206018636
0.943714711916
0.917014697486
0.884352302819
0.850647325081
0.820625272462
0.797987303612
0.784761532363
0.780947958714
0.784518468835
0.791771904076
0.797982756244
0.798231228176
0.788270992397
0.765284417391
0.728394445923
0.678844346567
0.619813949888
0.555903801794
0.492376056376
0.434282966308
0.3856332424
0.791958238863
0.807654360404
0.833669657383
0.865682601284
0.898236388375
0.92564468962
0.942938577751
0.9466912968
0.935578640879
0.910578399745
0.874774708643
0.832801423352
0.790021021758
0.751581224976
0.721512633803
0.702023541866
0.693113949163
0.692575562069
0.696377779787
0.699372881203
0.696198388428
0.682220445687
0.654354917732
0.611624014807
0.5553519428
0.488965457679
0.417433486713
0.346442358936
0.281448878081
0.226774572665
0.806825595309
0.817484489024
0.839338367455
0.86775288438
0.896866685008
0.92056926536
0.933523316807
0.932055157978
0.914759645671
0.882715302164
0.839272766434
0.78945342256
0.739062429153
0.693669720252
0.657635338798
0.633347758214
0.620806978499
0.617624526233
0.619440358471
0.620684541177
0.615551915739
0.599021098078
0.567741449217
0.520634446877
0.459105234262
0.386827492742
0.309138530947
0.232148852853
0.161719813254
0.102485758371
0.813954835078
0.821775090519
0.841666139954
0.868680819455
0.896553223172
0.918748672182
0.929561476497
0.925071029343
0.903791250201
0.866901393874
0.818018603067
0.762551790163
0.706748794495
0.656601763026
0.616800180844
0.589912701166
0.575939323991
0.572311396104
0.574339432414
0.576031285962
0.571139117413
0.554254014383
0.521758834168
0.472474321966
0.407886558295
0.331916149927
0.250268786854
0.169479147996
0.0958131392044
0.0342179244072
0.813448715831
0.821030232091
0.841558351625
0.869773092797
0.899003998696
0.92229221546
0.933563671737
0.92865083535
0.905986688469
0.866851218416
0.815128071626
0.756613688785
0.697998589952
0.645697135008
0.604728251193
0.577840771514
0.565034695974
0.56356119156
0.568401331037
0.573140754521
0.571088941955
0.556449452651
0.525338640176
0.476476517205
0.411430101572
0.334366925452
0.251361060195
0.169371359667
0.0950682807772
0.0337118051597
0.805307237567
0.815249913742
0.839015002468
0.871029704404
0.904219011581
0.931199895192
0.945529902525
0.942794576001
0.921345960474
0.882564775789
0.83060117211
0.771639118428
0.712811815523
0.6609558362
0.621419549844
0.59713196926
0.588093094447
0.591373912602
0.60162605434
0.612012946854
0.615401389365
0.605607412881
0.57848086724
0.532641032596
0.469735864095
0.394179819315
0.31241535097
0.231825487866
0.159485237972
0.100967400628
0.789427642626
0.803930068268
0.833130715738
0.87114396799
0.910490265997
0.943362406007
0.962949553948
0.964590326839
0.946555832218
0.910327522454
0.860322051438
0.803110916466
0.74626999904
0.69705808489
0.661152985546
0.641663893608
0.638590809076
0.648824539351
0.666687272901
0.684920223997
0.695947511137
0.693197637026
0.672253947771
0.631634991004
0.573069659188
0.501219335301
0.422894853419
0.345903417291
0.277724585945
0.224243976428
0.765637773893
0.786164781043
0.8222658193
0.867742453912
0.91471057479
0.954938803243
0.981247923834
0.988729628182
0.97557408651
0.943363483708
0.896780977399
0.842785593179
0.789395893276
0.74429287634
0.713483796051
0.700258024802
0.704615562593
0.72326703703
0.750205194436
0.777749036156
0.797879999968
0.803639060272
0.790343059445
0.756409812599
0.70364914951
0.636969378559
0.563549715182
0.491621538072
0.429068957317
0.382090407668
0.733756852461
0.760832889835
0.804358767593
0.857823233278
0.912937625742
0.961046391351
0.994601933308
1.00844901783
1.00069687782
0.973028430693
0.930393337803
0.880138153051
0.830724119384
0.790254448378
0.765065835858
0.758627834011
0.770940442839
0.798534110154
0.835072140128
0.872451321188
0.902210410385
0.917002853818
0.911878990135
0.885155901923
0.838724356275
0.777739586974
0.709749190817
0.64340872144
0.587006839989
0.547054798923
0.69367282599
0.726836371601
0.777325566874
0.838316341645
0.901115483709
0.956643264487
0.996983705822
1.01673464853
1.01392438819
0.990336574759
0.951187373303
0.904210866031
0.858310976614
0.82201312955
0.801983462812
0.801871708382
0.821677866261
0.857752204465
0.903428585022
0.950181583435
0.989107276032
1.01247158061
1.01505833208
0.995083880516
0.954519930322
0.898768640684
0.835745989761
0.77453170613
0.723819001998
0.690431947528
0.645422408548
0.683348809187
0.739476668766
0.806669099415
0.87582833787
0.93745048061
0.983251168114
1.00758131579
1.00838828193
0.987556448978
0.950568485746
0.905546002747
0.861835604371
0.828384928042
0.812189553878
0.817079393656
0.843054447376
0.886284803263
0.939774881194
0.994577043751
1.04134468654
1.07195619905
1.08092891247
1.06637844434
1.0303574364
0.978514973214
0.919135414315
0.861722663222
0.815374483199
0.787227762117
0.589259307669
0.630030333639
0.689878627828
0.761354484659
0.83495558981
0.900753864814
0.950096568792
0.977087691752
0.979593654659
0.959599572493
0.92285461779
0.877867929366
0.834428792336
0.801907057044
0.787627745758
0.795600950048
0.825826669914
0.874294813786
0.933680359396
0.9946134564
1.04730481968
1.08324531043
1.0966857561
1.08564104172
1.05224474632
1.0023928799
0.944738183328
0.889208735076
0.845306849467
0.820482232076
0.525698024484
0.567171087291
0.628597227594
0.702213922112
0.778114305461
0.845946124235
0.896688256191
0.924197765936
0.926260137119
0.904961217242
0.866316682573
0.819223200229
0.773912736049
0.740177353299
0.725671516395
0.734585496701
0.766919294217
0.818482637579
0.881621062371
0.946542505327
1.00301500061
1.0421418811
1.05790747053
1.04822592139
1.01531175005
0.965307891887
0.90723546915
0.851446735244
0.807848555553
0.784203453358
0.455524692972
0.495737473593
0.556779140989
0.63057435417
0.706811696697
0.774714740218
0.82489398113
0.850959558637
0.850616019074
0.826049942465
0.783543508808
0.732380913521
0.683236803169
0.646325453939
0.629630772395
0.637523209695
0.670002765839
0.722698989669
0.787627974621
0.854575444508
0.912866752766
0.953217703975
0.969346118137
0.959065415231
0.924671048919
0.872552879998
0.812100412071
0.754090073489
0.708833280694
0.684405374673
0.379771990676
0.417312140304
0.476556985983
0.549118369021
0.624280321917
0.690842241377
0.739046242437
0.762255538898
0.758093739782
0.728848157633
0.681067476178
0.624423419142
0.570033313809
0.528533649292
0.508237774299
0.513696319785
0.54490928575
0.59732604124
0.662633237545
0.730194385553
0.78889215798
0.829054831101
0.844133721189
0.831841515701
0.794554605613
0.738909777125
0.674664915201
0.613020623135
0.564692868428
0.538069809772
0.299661244672
0.333936900257
0.390793061172
0.461528751018
0.535023451234
0.599652383585
0.645289281744
0.665050434111
0.656478512392
0.621961561655
0.568314769354
0.505597387519
0.445369424158
0.398689581304
0.374200649814
0.376633440438
0.405987953174
0.457533377275
0.522626921884
0.590209884965
0.648722258513
0.688104790497
0.701542293463
0.686646722343
0.645875405431
0.586112054327
0.517482935357
0.451612826759
0.39962224709
0.370212172752
0.216520421148
0.247884472925
0.302704839309
0.371967726196
0.444148063966
0.507196899442
0.550619584933
0.567285483439
0.554656329351
0.515220900259
0.456060887347
0.387623070947
0.32191013979
0.270403008833
0.24207391108
0.241833837075
0.269682786816
0.320709769762
0.385942552908
0.453900221297
0.512580086198
0.551535367279
0.563684373356
0.546538326839
0.502635493336
0.43910650985
0.366446024068
0.29670298917
0.241402474774
0.209558274987
0.131690763756
0.161397147497
0.215435655125
0.284479674826
0.356599585925
0.419322260299
0.461784668897
0.476609249316
0.461176798634
0.41807682696
0.35465752921
0.281753214019
0.21180925084
0.156728767555
0.125813439313
0.124154436452
0.151751758973
0.203514236537
0.270140193994
0.339726503464
0.399827795493
0.439609761445
0.451724206407
0.433581620266
0.387801205947
0.321760525852
0.246322609032
0.173960583609
0.11660407026
0.0835796807972
0.046436730956
0.0764361127817
0.131643427771
0.202419246407
0.276429396954
0.340776576344
0.384229374169
0.39916330262
0.382878221461
0.338064373326
0.272336456857
0.196916308994
0.124691979913
0.0679888104176
0.0364379178056
0.035310652209
0.0646070136277
0.11905565193
0.189025449817
0.262191066487
0.325664451763
0.368223768705
0.382254318671
0.365065859026
0.319358530009
0.252756819425
0.176492137685
0.103461787856
0.0459999416735
0.0137460286545
