# vtk DataFile Version 2.0
Function: z = f(x,y,z)
ASCII
DATASET STRUCTURED_POINTS
DIMENSIONS 30 30 1
ORIGIN 0 0 0
SPACING 0.05 0.05 0.05
POINT_DATA 900
SCALARS density float
LOOKUP_TABLE default
0.0817725065852
0.202265819009
0.32215288085
0.439627322879
0.552773082737
0.65969306587
0.758642519311
0.848146189427
0.927081027678
0.994712032448
1.0506767644
1.09492277487
1.12761013863
1.14899711125
1.15932963148
1.15875449597
1.14727170473
1.12473446108
1.09089682631
1.04550054483
0.988385541855
0.919604266068
0.8395191568
0.748865215667
0.648765491209
0.54069523706
0.426399206184
0.307774493139
0.18673716028
0.0650935768396
0.123400858566
0.242863251804
0.364506060345
0.485527585893
0.602724558175
0.71285023509
0.81298774116
0.900876151016
0.9751348883
1.03534946396
1.08200540509
1.1162833076
1.13975177585
1.15401247017
1.16035955432
1.15951312429
1.15147318008
1.1355196257
1.11035829738
1.07438753481
1.02603873362
0.964131297898
0.888179700552
0.798598430634
0.696768064503
0.584949527525
0.466059695181
0.343345309571
0.220009640969
0.0988543876686
0.164812692481
0.28423940435
0.408633197406
0.534197044288
0.656440466811
0.770767075325
0.87308787184
0.960356259252
1.03093413338
1.08472751776
1.12306990587
1.14837493824
1.1636197488
1.17174940263
1.17510628851
1.17498380177
1.17138194242
1.16300731511
1.14751753108
1.12196752523
1.08338016365
1.0293418058
0.958518958189
0.871005597302
0.768439827312
0.653868245322
0.531379849325
0.405571028967
0.280932262437
0.161260577093
0.205362876464
0.325393670113
0.453178210834
0.583924142201
0.711853778113
0.831021081377
0.936164931487
1.0234530596
1.09098983373
1.13900178997
1.16967038821
1.1866423136
1.19430322961
1.19694160611
1.19794805687
1.19918927657
1.20066526523
1.20050932814
1.19533085154
1.18084136556
1.15265520673
1.10712568991
1.04207135519
0.957265666486
0.854604255788
0.737919391936
0.612472195436
0.48420870348
0.358906602171
0.241358247933
0.244367102528
0.365182023995
0.496537358418
0.632645420308
0.766441315648
0.890629359698
0.99877630944
1.0862642243
1.15093994447
1.1933505186
1.21652537301
1.22534423745
1.22560130496
1.22292845016
1.22176451183
1.22454948402
1.23128336672
1.2395261659
1.24483904275
1.24159012269
1.22398521266
1.1871445829
1.1280388071
1.04612083662
0.943543831247
0.82492573157
0.696699780604
0.566161663088
0.440376273038
0.325131295945
0.281147836905
0.402444915247
0.537069072429
0.678237293898
0.817597477722
0.946504291616
1.05735237005
1.14473810071
1.20625079597
1.24275801706
1.2581371567
1.25850098923
1.2510522373
1.24276618026
1.23912988191
1.24315663563
1.25484644143
1.27118600593
1.28668826531
1.29437794022
1.28705230803
1.25859859439
1.20513940658
1.12580718336
1.02301261238
0.902159305937
0.770852629562
0.637737915542
0.511167265808
0.397923694916
0.315081953535
0.436140602625
0.57331299644
0.718820791362
0.863024677544
0.995929675154
1.10875829615
1.19532125648
1.25295034071
1.28283362262
1.28969646137
1.28088467588
1.26500951838
1.25038967297
1.24356042846
1.2481083776
1.26403352038
1.28774926406
1.31272031983
1.33062800359
1.33286106312
1.31207367947
1.26354049352
1.18607343145
1.08234070873
0.958531609394
0.823423621483
0.687011724833
0.558935229289
0.44697247847
0.345642576119
0.465461612784
0.604181060057
0.753027245257
0.901073650622
1.03697564877
1.15078362916
1.23552263599
1.28826692601
1.31052508558
1.30787044025
1.28888185357
1.26357910732
1.24162429036
1.23060091653
1.2346688779
1.25382817448
1.28391891418
1.31735758318
1.3444820926
1.35527266068
1.34115042385
1.29654205658
1.21993897249
1.11426691485
0.986500839443
0.846590356822
0.705880094367
0.575296569839
0.463613455919
0.372428615896
0.489914882738
0.629088226073
0.780179644156
0.930975411309
1.06878125261
1.18247543498
1.26429733092
1.31106366933
1.32460354916
1.31133826236
1.28107971709
1.2452562247
1.2148732788
1.19856261825
1.20105743446
1.22235772744
1.25773030577
1.29854343059
1.33379160828
1.35204652751
1.34349628011
1.30171957412
1.22488731061
1.11618276066
0.98336655179
0.837560417064
0.691458631408
0.557274920499
0.444778286084
0.395177572286
0.509352380685
0.648000931463
0.800358893807
0.952925334127
1.09165632995
1.2042580257
1.28218412212
1.32199382031
1.32583673177
1.30098211489
1.2584749224
1.21115199525
1.17136223179
1.14878559589
1.14872857833
1.17119117909
1.21086690742
1.25807579944
1.30046895679
1.32520953855
1.32125259195
1.28132885863
1.20328872707
1.09057299619
0.951727965237
0.799047489785
0.646575492308
0.507812906398
0.393524062866
0.41376000267
0.523947509153
0.661395423899
0.814344087032
0.968005357045
1.10698566392
1.21781902957
1.291173483
1.32335069749
1.31682079712
1.27970100667
1.2242693235
1.1647711181
1.11489869362
1.0853802389
1.08209554408
1.10504460916
1.14834764401
1.20127645976
1.25013875329
1.2806891541
1.28064966483
1.24190306071
1.16197921764
1.04457646235
0.899026765836
0.738796106184
0.579278053413
0.435260749028
0.318503852906
0.428157175381
0.534121909547
0.67013371786
0.823437611379
0.977958240684
1.11695238821
1.22578195335
1.29432929339
1.31863855378
1.30150037118
1.25187993676
1.1832882925
1.11137933847
1.05118878255
1.01449303862
1.00774519614
1.03094525513
1.0776401261
1.13605339519
1.1911493545
1.22727410396
1.23091660162
1.19311165628
1.1110686313
0.988743381206
0.836253548729
0.668237234476
0.501437656009
0.351930162748
0.232469743634
0.43842625998
0.540435797703
0.675279075458
0.829205775239
0.984853339711
1.12412890377
1.23122224428
1.2952300468
1.31193892896
1.28446003999
1.22260653749
1.14112250802
1.05707038123
0.986829269741
0.943223812467
0.933280398213
0.956999026979
1.00735330996
1.07151860824
1.13311580921
1.1750824832
1.18267454366
1.14607883299
1.06218420196
0.935204032939
0.776041640376
0.600507247396
0.426693719108
0.271963612845
0.150067246614
0.444659490604
0.543461195172
0.677883305655
0.833180174984
0.99070203791
1.13100638178
1.23711086095
1.29732648924
1.30718235646
1.27011012442
1.19677091712
1.10314186572
1.00769392945
0.928149625689
0.878381818358
0.865990195611
0.890974757448
0.945735815711
1.01640050649
1.08524631239
1.1338022742
1.14609126075
1.11145214804
1.02645327425
0.895565549584
0.730477960223
0.548172851803
0.36809273698
0.208887381003
0.085302430942
0.446944702516
0.54366030329
0.678782975865
0.836571744106
0.997089634849
1.13954448789
1.24578183508
1.30332701851
1.30745160016
1.2619077544
1.17820457166
1.0735522277
0.967830211313
0.880104444646
0.825296016623
0.811577914746
0.838950139016
0.89923970193
0.977525514563
1.05474165477
1.11100863376
1.12911627576
1.09755549036
1.01257410318
0.878900552235
0.709009495438
0.521055400942
0.335830428948
0.17327155262
0.0491197480917
0.445334323092
0.541290299204
0.678440013
0.840047159283
1.00488755697
1.15081939832
1.25851609266
1.31471731035
1.31443708556
1.26174810522
1.16900742616
1.05465826877
0.939988651402
0.845407900954
0.786885331368
0.773167229491
0.804253595324
0.871398142019
0.958631555636
1.04554450927
1.11084898457
1.13610176116
1.1089457822
1.02530836076
0.890175462663
0.716807417561
0.524530816119
0.335487466083
0.170901548533
0.047509368668
0.439828352333
0.536351182912
0.676854417059
0.843606420513
1.01409580428
1.16483111306
1.27531363369
1.33149736477
1.32813881266
1.26963117686
1.16917948063
1.04645998894
0.924169249712
0.824059994614
0.763149762594
0.750758139847
0.786885126373
0.862211135978
0.959718629708
1.05765487591
1.13332332665
1.16704771695
1.14562302356
1.06465604699
0.92939028087
0.753871726592
0.558599097333
0.367063848385
0.201777368743
0.0804712926708
0.430374362862
0.52858577727
0.673564261132
0.846582851121
1.02384295033
1.18050345591
1.29489353218
1.35218150601
1.34686635595
1.28366179407
1.17662081002
1.04665271338
0.917862581669
0.813346551284
0.751170386193
0.741226971939
0.783516308521
0.868145510399
0.977048813607
1.08713008173
1.17428423727
1.21760197065
1.2030302922
1.12585548986
0.991578585082
0.815031250991
0.617884323278
0.424978904782
0.260113592412
0.142015349495
0.416884519415
0.51753188094
0.667732977804
0.847765517614
1.03254369555
1.19587676121
1.31492175641
1.37406133629
1.36753695156
1.30038282688
1.1874999183
1.05103058001
0.916488419094
0.808312976708
0.745618241835
0.738870399361
0.788069449286
0.882749206724
1.0037956827
1.12676933604
1.22615655966
1.2798149994
1.27284369918
1.20020843436
1.06766775421
0.89083900359
0.692565140711
0.499036915953
0.335340134141
0.221197087668
0.399266587856
0.502617472374
0.658308758113
0.845622823619
1.03818665615
1.20845985778
1.33242734779
1.39368610958
1.38622006606
1.31538395445
1.19692669722
1.05422369315
0.914197078903
0.802629800392
0.73968407161
0.73639937679
0.792775715933
0.897773604806
1.03123082942
1.16736444384
1.27925231144
1.34351903341
1.34441568729
1.27658753586
1.14605065621
0.969208064943
0.770074842772
0.576191387627
0.413930712248
0.304010438092
0.377463398625
0.483282335732
0.644228339947
0.838588460747
1.03870247748
1.21568034467
1.34433485908
1.40747733239
1.39883415968
1.32408059074
1.19981351445
1.0506413742
0.904894836223
0.789700251185
0.726268058093
0.726211040526
0.789529198486
0.904609748392
1.05024225124
1.19930035635
1.32345339751
1.39809293132
1.4066220689
1.34336556045
1.21459701091
1.03750510859
0.837277056725
0.642802900792
0.481742861445
0.375809889205
0.351493683387
0.459104829611
0.624629708827
0.825360041449
1.03234839891
1.21535508818
1.34802078352
1.41237112488
1.4018749795
1.32252810975
1.19177537094
1.03545825104
0.883315945853
0.763818210814
0.699223709938
0.701718526152
0.771302659454
0.89579002692
1.05292196453
1.21422871686
1.3499710881
1.43430759027
1.44979336808
1.39043265915
1.26275659623
1.08473953939
0.882740814357
0.687000114162
0.526464867373
0.423843353576
0.321486884764
0.429911551484
0.59903661708
0.805158472902
1.01804248247
1.2060993052
1.34179749286
1.40637701363
1.39304920697
1.3081303478
1.16991325783
1.00547246966
0.84595570865
0.72117613499
0.65444063771
0.658508599082
0.733380019107
0.866295515513
1.03394819927
1.20652491018
1.35287792289
1.44593270481
1.46739643422
1.41095283619
1.28339057128
1.10346967129
0.898721584468
0.700735651391
0.539746508539
0.439457764564
0.287705503331
0.395850533152
0.567482627733
0.77790284936
0.995589353634
1.18760315244
1.32524067501
1.38895621781
1.37170359247
1.28011958647
1.13334498796
0.95968737412
0.79170299989
0.660548430213
0.590578779133
0.595126728269
0.67419227762
0.814442745569
0.99152301807
1.17427653018
1.33014702697
1.43082693123
1.45717545485
1.40255581031
1.27401418602
1.09109628548
0.882505679481
0.681181356126
0.518645159816
0.419596028267
0.250550627854
0.357414837601
0.530552777992
0.744270182249
0.965757998059
1.16072758976
1.29930326407
1.36115364572
1.33897501852
1.23972468253
1.0833913923
0.899515769616
0.722062598991
0.583531850122
0.509326862068
0.513353615792
0.595612111295
0.742196367614
0.927703045687
1.11963217582
1.2840189735
1.39132281694
1.42155495159
1.36775807738
1.23723591053
1.05031982627
0.836885517913
0.631221621105
0.466137188162
0.367326485865
0.21054913463
0.315411938176
0.489335138251
0.705629139012
0.930197680231
1.1274024787
1.26619571862
1.325460353
1.29763513782
1.18999788571
1.02338531763
0.828571099973
0.640928546827
0.49430103264
0.415140121485
0.417925093671
0.5026559492
0.654853407761
0.84806590528
1.04845006731
1.22063257976
1.33383977624
1.3672349358
1.3135402458
1.18031695025
0.988682096153
0.769683499308
0.558959442921
0.390606187219
0.291313328047
0.168324149718
0.27088357612
0.445290064936
0.663858691258
0.891205986942
1.09034402124
1.22905285583
1.28542977199
1.25165599788
1.13532985871
0.958136041838
0.752081258267
0.553947351656
0.398921101208
0.314502296009
0.315743515715
0.402644760325
0.560153450186
0.760769796208
0.969307019191
1.14898327547
1.26779185405
1.30404806758
1.25015359083
1.11392719565
0.917271600765
0.692406744492
0.476320557582
0.304396508178
0.204319521188
0.124553206889
0.224989302184
0.400059125778
0.621082423698
0.851388519885
1.05263983604
1.19144431134
1.24511355532
1.20557126832
1.08073628813
0.893141268504
0.676025965057
0.467580751018
0.304335810346
0.214839157141
0.214716670403
0.303968350134
0.466968317331
0.675168557894
0.892038887866
1.07938893401
1.20397894073
1.24327625426
1.1893620368
1.05031258803
0.848816298397
0.618265228734
0.39699695734
0.221682160271
0.1210010915
0.0799206141255
0.178873141465
0.355246062987
0.579363795654
0.813268455495
1.01727281666
1.15681269582
1.20841403077
1.16374299403
1.03103893596
0.833682476736
0.606146416562
0.388029658247
0.217205790501
0.123271052439
0.122424622408
0.214666500408
0.383797508092
0.600221406346
0.826064606457
1.02172820562
1.15273940363
1.19571758031
1.14242338529
1.00119064608
0.795493424845
0.559895904943
0.334085312214
0.15601953063
0.0553741432282
0.0350715032975
0.133535700496
0.312206957763
0.540414362994
0.778912824304
0.9866654683
1.12793598913
1.17846465287
1.12966010421
0.990082206073
0.783959545062
0.546997965978
0.320204901201
0.142797344197
0.0454197590944
0.0448446235859
0.141071937672
0.317329223659
0.542972017419
0.778783325485
0.98375571548
1.1221833426
1.16983762024
1.11815868549
0.975737893639
0.766834978626
0.527186246299
0.297828570051
0.118007041768
0.0183925735518
