# vtk DataFile Version 2.0
Function: z = f(x,y,z)
ASCII
DATASET STRUCTURED_POINTS
DIMENSIONS 30 30 1
ORIGIN 0 0 0
SPACING 0.05 0.05 0.05
POINT_DATA 900
SCALARS density float
LOOKUP_TABLE default
0.05250655686
0.0546083355723
0.0566927928395
0.058708318112
0.0606001667511
0.0623141360551
0.0638003759394
0.0650167363001
0.0659311300361
0.0665225571012
0.0667806620858
0.0667039464566
0.0662969837785
0.0655671527823
0.0645214802891
0.0631641604891
0.0614951933824
0.0595103847786
0.0572027078567
0.0545647838859
0.0515920393013
0.0482859726362
0.0446569393002
0.0407259393396
0.0365250598553
0.0320964509513
0.0274899627123
0.0227597978398
0.0179607009726
0.0131442826603
0.154503952133
0.155943772211
0.157445889869
0.158930256584
0.160305350348
0.161478407102
0.162366087546
0.162903793813
0.163052080863
0.162799106153
0.162158741884
0.16116471937
0.159861855876
0.158295913127
0.156503867231
0.154506292358
0.152303188508
0.149873981511
0.147181695258
0.144180568027
0.14082578255
0.137083607514
0.132940170718
0.128407314705
0.123524484515
0.118356278015
0.112986034504
0.107506518043
0.102009250639
0.0965742808159
0.255990364774
0.259116987462
0.262385526755
0.265687496158
0.268894596294
0.271875501743
0.274513383992
0.27672119741
0.27845213902
0.27970352378
0.280513451504
0.280950883349
0.281100880286
0.28104758703
0.280857928976
0.280568860275
0.280180380928
0.279655536783
0.278927402445
0.277911833199
0.276523768074
0.274694245913
0.272385166902
0.269599216083
0.266383196432
0.262824153581
0.259038916045
0.255158809241
0.251312132546
0.247607372457
0.355443283572
0.361766549904
0.368311351868
0.374940764992
0.381489712533
0.387788307711
0.3936862328
0.399073994404
0.403897431607
0.408163016871
0.411933077621
0.41531180486
0.41842450326
0.421393700532
0.424316271353
0.427245549859
0.430181536049
0.433070895789
0.435816754401
0.438296584173
0.440385080435
0.441978052182
0.44301317199
0.443483967399
0.443444599322
0.443004561154
0.442314170626
0.441543314512
0.440857069561
0.44039236024
0.451247741683
0.461192560309
0.47143853359
0.481820299086
0.492136002679
0.502177196236
0.511760072813
0.52075269125
0.529093532696
0.536798227112
0.543953329537
0.550698260819
0.557198569332
0.563615165779
0.570074874125
0.576647408486
0.583332768861
0.590061241136
0.596706001344
0.603106138784
0.609096105081
0.614536479386
0.619340706662
0.623493156946
0.627055349091
0.630159224256
0.632988589384
0.63575189261
0.63865098805
0.641851238146
0.541804759411
0.554658478904
0.567892972078
0.581314438518
0.594684246739
0.607755387248
0.620310563887
0.632195387732
0.643340981994
0.653772134137
0.66359962681
0.672998110709
0.682173377909
0.691324722105
0.70060891655
0.71011205534
0.719834138475
0.729689071858
0.739520082238
0.749127875919
0.758306660825
0.766881786262
0.774742469579
0.781863923314
0.788315024255
0.794250161326
0.799886630684
0.805471441824
0.811243226229
0.817395784316
0.625643759256
0.639705796358
0.654228226166
0.668988810292
0.683712139882
0.698112644084
0.711939537526
0.725015983521
0.737265747341
0.748722773952
0.759522073616
0.769873526872
0.7800231695
0.790208678188
0.800616775472
0.811349935433
0.822408158068
0.833688969302
0.845005646594
0.856120513258
0.866787533515
0.876796826825
0.886013382925
0.894403256851
0.90204268333
0.909108499048
0.915851489378
0.922557225173
0.929501115286
0.936905398104
0.701521313156
0.714428875575
0.727876449725
0.741613359245
0.755327417912
0.768694493516
0.781430311469
0.793335587321
0.804326728407
0.814446837195
0.823855151556
0.832796781879
0.841558007643
0.85041488853
0.859584096363
0.869184485202
0.879216055047
0.889559951838
0.899999503752
0.910258651106
0.920051114422
0.929131783313
0.937341419905
0.94463692173
0.951101881455
0.956935583528
0.962422302539
0.967886170697
0.973639374224
0.979932589484
0.768490851627
0.777664087908
0.787456954947
0.797590338407
0.807715274697
0.817469070249
0.82653396126
0.834688215516
0.841840882414
0.848044221923
0.85348169953
0.858433655465
0.863226612911
0.868175014543
0.873525481471
0.879413247734
0.885838313334
0.892665444229
0.89964801931
0.906471595902
0.912809650823
0.918381843841
0.92300470947
0.926625987741
0.929336629258
0.931358366233
0.93300896247
0.934651111537
0.936633777026
0.939236073271
0.825932873307
0.829062078306
0.832890533089
0.837110685344
0.841336794113
0.845167604468
0.848251863392
0.850345390907
0.851349878473
0.85132674356
0.850483679266
0.849136255669
0.847651239654
0.846381456886
0.845603477763
0.845468916307
0.845977772518
0.846978432372
0.848194325476
0.84927262616
0.849846567542
0.849600579542
0.848326969064
0.845964318637
0.8426109368
0.838511003533
0.834015771851
0.829526496683
0.825428918989
0.822030591076
0.873541893613
0.869032076733
0.865301128661
0.862013059114
0.858745349764
0.855058184324
0.850566820564
0.84500463074
0.838265948375
0.830421348442
0.82170275165
0.812460957924
0.803102977848
0.794020020083
0.785518604312
0.777766724538
0.770764380761
0.764343578978
0.758197799506
0.751935833685
0.745150670929
0.737491511314
0.728726434131
0.718784864407
0.70777246862
0.695955874512
0.683719824314
0.671504134313
0.659731322837
0.648737380169
0.91127370581
0.898569156904
0.88672309583
0.875371094334
0.864053856718
0.852293005336
0.839670308744
0.825896691434
0.810859128991
0.794637353892
0.777487514455
0.759795640451
0.742008986167
0.724557143259
0.707776580692
0.691851672454
0.676782418542
0.662384444974
0.648321282779
0.634163340306
0.619463363265
0.603835321888
0.587023067853
0.568946868685
0.5497197488
0.529630783704
0.509098204843
0.488600389862
0.468596634458
0.449451366886
0.939263230064
0.918995428195
0.899665733185
0.880881278803
0.862145991985
0.842942933725
0.822820383365
0.801466817633
0.778761854177
0.754794382975
0.729844779957
0.704334304739
0.678750455313
0.653561206324
0.629132976027
0.605666518388
0.583161833406
0.561418167116
0.540069101263
0.518646661201
0.49666334894
0.473697904864
0.449469953041
0.423890603494
0.397080238575
0.369350381556
0.341152753096
0.313004292198
0.28540107193
0.258735958519
0.957728138936
0.931660861462
0.906611309872
0.882158179962
0.857768621299
0.832887133519
0.807028506748
0.779858769952
0.75125018284
0.721300792891
0.69031520365
0.658749904577
0.627132637365
0.595969759653
0.565657638982
0.536413409299
0.508237070604
0.48091148895
0.454040296797
0.427117136504
0.39961426638
0.371075196962
0.341195324709
0.309876602139
0.277246769544
0.243639797958
0.209540897256
0.1755055678
0.142066660025
0.109645478133
0.966875723646
0.937656251864
0.909534124991
0.882059600851
0.85466305164
0.826750415637
0.797802993753
0.76746436719
0.735599437718
0.702315410321
0.667941116153
0.632968274522
0.597964870821
0.563475645684
0.529926915937
0.497552195508
0.466351484397
0.436091268676
0.406345231519
0.376568632293
0.346193485603
0.314728072142
0.281843560755
0.24743274646
0.211630727486
0.174793922631
0.137441030984
0.100166114266
0.0635388002815
0.0280088312053
0.966829712805
0.937588537461
0.909524326052
0.882158898427
0.854885849415
0.827072555935
0.798166829684
0.767789804099
0.735799023015
0.702310848916
0.667678340568
0.632428447124
0.597169397681
0.562484315864
0.528829467786
0.496454747358
0.465360154577
0.435295795536
0.405805404121
0.376305856707
0.346188924197
0.314927657439
0.282168997665
0.247796582391
0.211952867784
0.175016720406
0.137540328561
0.100156315327
0.063471085879
0.0279628203646
0.957590106414
0.931457718255
0.906581913055
0.882456072692
0.858437014623
0.833853554413
0.808120014541
0.780835080681
0.751848938731
0.721287108675
0.689526876893
0.657130422383
0.624746217944
0.592995770194
0.562365294531
0.533121064849
0.505263081145
0.478525069529
0.452420814603
0.426328809747
0.399600582164
0.371673952854
0.342171635438
0.310968109932
0.278213190438
0.244308191283
0.209838789986
0.175476170983
0.141863516817
0.109507445611
0.939033175861
0.918656856183
0.89961673849
0.881377766686
0.863259980859
0.844553635215
0.824639563019
0.803094002182
0.779759780663
0.754771575948
0.728530902029
0.70163516775
0.674773089611
0.648604557225
0.623645735276
0.600179277637
0.578205184307
0.557440801414
0.537369964274
0.517332783274
0.496640541914
0.47469583135
0.45109713759
0.425709783148
0.398690940065
0.37046437043
0.341649240978
0.312955297503
0.285062499917
0.258505904316
0.910951629925
0.898095156086
0.886654503257
0.876066177369
0.865613441142
0.854547987422
0.84221716026
0.828174749802
0.812256226071
0.794605424054
0.775648085356
0.756016848665
0.736440674185
0.71761783452
0.700094443642
0.684169535403
0.669843109804
0.656816132991
0.644542490994
0.632323911207
0.619431433428
0.605232418967
0.589301126221
0.571493720201
0.551974730886
0.531190368129
0.509793287878
0.488531797289
0.46812263364
0.449129291002
0.873127796046
0.868422647111
0.86521293821
0.862906737302
0.860750529739
0.857957447006
0.853841343941
0.847933562928
0.840062216048
0.830380295795
0.81933777138
0.807602511342
0.795943719585
0.785098051705
0.775641570961
0.767889691187
0.761842412383
0.757184320715
0.753339352925
0.749570853415
0.745109618281
0.739287778987
0.731655366319
0.722059387785
0.710671731302
0.697961054486
0.684613502502
0.671415943862
0.659121893215
0.648323282603
0.825426754059
0.828317219879
0.83278274476
0.838202958685
0.843787569638
0.848711147746
0.852254058632
0.853925196915
0.85354531674
0.851276568102
0.847593147825
0.843198154292
0.83890103511
0.835476828869
0.833531548112
0.833396986656
0.8350731445
0.838228227829
0.842256224099
0.846382094719
0.849796392083
0.851796017809
0.851906775072
0.849966513876
0.846154480078
0.840961779057
0.835108045192
0.829418708354
0.824684060561
0.821524471829
0.767892710698
0.776783800676
0.78732956874
0.798881206901
0.810611645772
0.821656894123
0.831263828361
0.838918895343
0.844435491276
0.847984923655
0.850065616917
0.851415899292
0.852885462087
0.855287726886
0.859258655519
0.865146421783
0.872951025677
0.882324293405
0.892630263137
0.90305551329
0.912750352554
0.920976452703
0.927235389297
0.931355854843
0.933524453131
0.934254737307
0.934299830964
0.93452372533
0.935753489794
0.938637932343
0.700831150546
0.713413159537
0.72772946564
0.743102822892
0.758669384536
0.773526597985
0.786887850432
0.798217140968
0.807320507863
0.814378416115
0.819913517773
0.824699370911
0.829625910539
0.835544941234
0.843122374111
0.85272276295
0.86434610775
0.877627854733
0.891902092783
0.906317017323
0.919982693343
0.932125562769
0.942222973552
0.950094460693
0.955933985924
0.960277550153
0.963911766186
0.967739186612
0.972623658187
0.979242426873
0.624861574965
0.638554651516
0.654061644203
0.670676869092
0.687499702056
0.70358902915
0.718124748351
0.730548410988
0.740658697391
0.748645230062
0.755054888661
0.760696461108
0.766500126115
0.773356071252
0.78196015692
0.79269331688
0.805555551133
0.820165925916
0.83582858083
0.851653328304
0.866709989625
0.880189776875
0.891545810392
0.900588467676
0.907519068395
0.912896061222
0.917539548178
0.92239064321
0.928349970444
0.936123213813
0.540930553438
0.553371905257
0.567706792237
0.583201092471
0.598917404463
0.613876052909
0.627223446573
0.638378689018
0.647133102639
0.653685467437
0.658606890685
0.662741390149
0.667059388243
0.67248945553
0.679757401698
0.689260540487
0.700998871899
0.714575082192
0.729263361677
0.744135139793
0.758219994125
0.770673906906
0.780925770865
0.788776806
0.794435689916
0.79848331905
0.801773284637
0.805285261983
0.809956652582
0.816521578343
0.450281514028
0.459770557857
0.471232755871
0.483905548191
0.496814755953
0.508942142493
0.519400627361
0.527586866356
0.533284823935
0.536702437601
0.53843504224
0.539361885463
0.540493633385
0.542797239564
0.547028462972
0.553600997333
0.562514842646
0.573356305189
0.585369625988
0.597587851487
0.60900031557
0.618727770625
0.626174881768
0.631133711494
0.633820295348
0.63483797753
0.63507383849
0.635546114891
0.637228985598
0.640885010491
0.354385034236
0.360209118647
0.368085976271
0.377224609251
0.386614061356
0.395197534565
0.40205445921
0.406559043329
0.40848789344
0.408058104549
0.405889239153
0.402895774708
0.400128621033
0.398593114677
0.3990749639
0.402004242406
0.407380950195
0.414775013562
0.423400724248
0.432252745705
0.440280168113
0.446568514015
0.450498220916
0.451852193808
0.450853826175
0.448128909978
0.444598014884
0.441317938915
0.439299638304
0.439334110904
0.254840093757
0.2574241274
0.26214055328
0.26816993557
0.274464540667
0.279929009192
0.283609282264
0.284857120155
0.283441771447
0.279589488648
0.273944061865
0.267455198401
0.261214051778
0.256264341536
0.253421725222
0.253132656522
0.255397135434
0.259768708275
0.265431717497
0.27134244356
0.276409732941
0.27968387834
0.280521089647
0.278695114354
0.274436703881
0.268394097955
0.261521355456
0.254913835766
0.249619272484
0.24645710144
0.153261659435
0.154115483344
0.157181318516
0.161611291148
0.166320890271
0.170176195147
0.172189657679
0.171690590377
0.168440883884
0.16267594821
0.155063801074
0.146589379626
0.138384081087
0.131530007994
0.126872767177
0.124875192304
0.125537283375
0.128396206722
0.132606355514
0.137085627217
0.140702624607
0.142472410535
0.141726967282
0.138230884838
0.13222227256
0.124371817938
0.115667069069
0.10724194669
0.100180961773
0.0953319881176
0.0511722424803
0.0526446179006
0.0564086236084
0.0615879478296
0.0670613022244
0.071656204696
0.0743516179342
0.0744544066841
0.0717191036512
0.0663902763476
0.0591601701047
0.0510489519169
0.0432282627092
0.0368185880093
0.0326954839352
0.0313381641352
0.0327466286094
0.0364416637092
0.0415477133169
0.0469442919048
0.0514597585477
0.0540739462513
0.0540946096842
0.0512771813344
0.0458671284962
0.0385575864246
0.0303695924298
0.0224756286087
0.0159969833009
0.0118099682806
