# vtk DataFile Version 2.0
Function: z = f(x,y,z)
ASCII
DATASET STRUCTURED_POINTS
DIMENSIONS 30 30 1
ORIGIN 0 0 0
SPACING 0.05 0.05 0.05
POINT_DATA 900
SCALARS density float
LOOKUP_TABLE default
0.076607927222
0.176208616049
0.275306982966
0.372406322038
0.46591903874
0.554273254726
0.63602331754
0.709946874169
0.775113398682
0.83091388974
0.877048040463
0.913472393385
0.940319581889
0.957803589169
0.966128193036
0.965415025005
0.955664085078
0.936753741736
0.908480217172
0.870629528189
0.823069041404
0.765842214286
0.699249353712
0.623899461021
0.540723062146
0.450942510099
0.356003457336
0.257477782204
0.156953079226
0.0559260543374
0.128889639784
0.227524520111
0.327966030261
0.427892763073
0.524650580323
0.615549324269
0.698172155229
0.770645735039
0.831826157576
0.881369989057
0.919679523345
0.947732968501
0.966830025267
0.978297783635
0.983208550713
0.982158977475
0.97514906392
0.961582159075
0.940385955832
0.9102333642
0.869824683435
0.818181705477
0.754902136464
0.680329410176
0.59560743274
0.502609542317
0.403752578591
0.301726699302
0.199186042675
0.098452015871
0.180902869945
0.279806036664
0.382824784938
0.486813006383
0.588050019072
0.68272738587
0.767457079867
0.839714777751
0.898143193202
0.942664459998
0.974383472743
0.995300105024
1.00788112494
1.01456672929
1.01729775447
1.01714587092
1.01411107863
1.00712170717
0.994236920142
0.973016520752
0.940993740898
0.896168706993
0.837436524433
0.76487505944
0.679841598333
0.584860464427
0.483319684629
0.379027696074
0.275705180691
0.176498246863
0.231847654189
0.331812413606
0.43820170631
0.547044722694
0.653554237129
0.752803533083
0.840433396424
0.913268518687
0.969738233359
1.01003024178
1.03595203928
1.050525165
1.05738345438
1.06008021101
1.0614248006
1.06296391304
1.06469754832
1.06507901655
1.06129895204
1.0498040512
1.02696047856
0.989746695017
0.936355205216
0.866598307824
0.782046669353
0.685875598269
0.582444308704
0.476679517191
0.373368449357
0.276481914811
0.280875450614
0.382125059815
0.492108154037
0.606029222446
0.718034495712
0.822078977911
0.912832267683
0.986468071411
1.04120234239
1.07748834952
1.09783618887
1.1062890651
1.10764788103
1.10657904704
1.10676045812
1.11021382363
1.11693914357
1.12491470859
1.13046262368
1.12891647848
1.11547537014
1.08609609404
1.03826855408
0.97153948138
0.887692922631
0.790555171456
0.685456629212
0.578442291827
0.475365928629
0.381023050451
0.327146117347
0.429306132363
0.542508584132
0.661133260596
0.778259848725
0.886725073198
0.980227345431
1.05428938665
1.10691376997
1.13881933184
1.15321876907
1.15517695185
1.15066185035
1.14545298176
1.14409677037
1.14908994499
1.16043250562
1.17562772344
1.19012917418
1.19815734064
1.19374425264
1.17182504001
1.12918700593
1.06511131394
0.981595390947
0.883116515711
0.775976276819
0.667337949592
0.564121847059
0.47194818128
0.369886978074
0.472063872107
0.587592154627
0.710026912349
0.831381288545
0.943373728495
1.03873145639
1.11232620831
1.16194717717
1.18857876698
1.19613627529
1.19070623782
1.17942369211
1.16918126213
1.16539390146
1.17103335839
1.18609963291
1.20762097675
1.23018243632
1.24689138765
1.25061279319
1.23526011724
1.19691806224
1.13460222417
1.05052341013
0.949809884039
0.8397344217
0.728578577834
0.624329209171
0.533431228994
0.408444706185
0.5093970121
0.626009658234
0.751013030078
0.875353727203
0.989631915494
1.08560363192
1.1574896274
1.20286571467
1.22298186528
1.22245597754
1.20839625268
1.18910479561
1.1725873371
1.16512736003
1.17017163213
1.1877201534
1.21432615612
1.2437061574
1.26785442645
1.2784688584
1.26844125199
1.23315370893
1.17135625765
1.08547308543
0.98128344134
0.867031288419
0.752116460778
0.645592358848
0.554728597137
0.442321951613
0.540694154238
0.657035648816
0.783252119612
0.909223622495
1.02443204396
1.11966223374
1.18848395761
1.22825964811
1.24050484436
1.23054004539
1.20649511798
1.17783923438
1.15369123217
1.14120312352
1.14429669563
1.16297194848
1.19330709491
1.22815012271
1.25838219434
1.27453413751
1.26847608547
1.23488753918
1.17225295952
1.08320991394
0.974188636692
0.854404278018
0.734374951431
0.624220601063
0.532035542647
0.471193213642
0.565771739089
0.68062850822
0.806844504078
0.933233238831
1.04815831957
1.14143340882
1.2059772872
1.23893900704
1.24209967503
1.22148239095
1.1862386871
1.14700480308
1.11401268328
1.09528286917
1.09521216738
1.11380057793
1.14665129417
1.18574377462
1.22084607492
1.24132195543
1.23801988388
1.20491676047
1.14023147853
1.04681498571
0.931748501407
0.805218363091
0.678860963668
0.563862790973
0.469142861962
0.494897983424
0.584844785785
0.697378783563
0.822756258576
0.94872417929
1.06252787341
1.15300981621
1.21243780319
1.23774750647
1.23098560029
1.19887778519
1.15159725898
1.10094732865
1.05827304535
1.03246347986
1.02839045828
1.04605398062
1.08058222077
1.12308610795
1.16222059101
1.18618236295
1.18479822598
1.15134247955
1.08376844942
0.985140463459
0.863190726191
0.729076762325
0.59555324416
0.47487320323
0.376780357717
0.513413033692
0.598436129669
0.708355372796
0.832602343665
0.957857467043
1.07024779123
1.15764460431
1.21166471658
1.22903042
1.21205395636
1.16816362694
1.10855429508
1.04619633512
0.993547905027
0.960366604866
0.951999280199
0.968445931024
1.00435971179
1.04998302241
1.09285770493
1.12001338501
1.12025519931
1.08615484656
1.01540008495
0.911268622546
0.782143649019
0.640153876306
0.4991722561
0.372518363638
0.270760618325
0.526809254701
0.607240438379
0.714876720939
0.83832498175
0.963199101877
1.07450785023
1.15915132765
1.2080953593
1.21784885694
1.19098962993
1.13564858028
1.06404223685
0.990308041358
0.92801725855
0.887796017801
0.875466184126
0.891027757525
0.928658872984
0.977733401129
1.02468007721
1.05536145951
1.05756101917
1.02314785418
0.949544155171
0.840241010404
0.704272594702
0.554738807226
0.406630879065
0.274334929154
0.169244078127
0.535201016781
0.611967018635
0.718247071105
0.841823352333
0.967243199684
1.07839710267
1.16121397491
1.20600865642
1.20907667877
1.17326141886
1.10739637945
1.02471975493
0.940536054373
0.86952964933
0.823195198468
0.807829586262
0.823432812711
0.863707993342
0.917160469485
0.969105869589
1.00423968459
1.00932372008
0.975524473331
0.899998567406
0.786450470754
0.644565343353
0.488414271589
0.334106765948
0.197095489066
0.0895982627992
0.538697235656
0.613189000097
0.719503766887
0.844599012943
0.971955531929
1.08434553396
1.16672674544
1.20876302122
1.20653651267
1.16315616427
1.08815807951
0.995802118315
0.902559857109
0.824228774241
0.773172057678
0.756161611351
0.77319743526
0.817507625473
0.876728994026
0.935064062567
0.976041254672
0.985400710418
0.953606326312
0.877549157877
0.76114705375
0.61473615906
0.45335874742
0.29424260871
0.153906949266
0.0453942921706
0.537362921277
0.611225282426
0.719219597656
0.847478642661
0.978416667403
1.09368760261
1.17727798743
1.2182006916
1.21232448628
1.16302388352
1.08053758753
0.980147123776
0.87949113604
0.795480209468
0.741346061324
0.724335614997
0.744448870487
0.794438904404
0.861073999486
0.927443570586
0.975908973918
0.991188684033
0.963043996696
0.888100399872
0.770489122391
0.621197294534
0.456238377138
0.293958439479
0.151943231594
0.0440599777909
0.531198073642
0.606075865619
0.717394563411
0.850462241486
0.986626606104
1.1064233086
1.1928677009
1.23432166758
1.22644059961
1.17286457659
1.0845349035
0.97775477131
0.871329891165
0.783283955011
0.727717209407
0.7123515972
0.737187118392
0.794501830134
0.870195485866
0.946244393645
1.00384284233
1.02668764093
1.00383748448
0.93165229339
0.814476676676
0.663948749773
0.497053160742
0.333254258255
0.19120433605
0.0855953196602
0.520137682803
0.59742185002
0.713455874784
0.852723130338
0.995504779243
1.12121819343
1.21190753762
1.25528371122
1.24678872502
1.19032822616
1.09754612037
0.985767264155
0.874964436012
0.784274434685
0.728666036031
0.716336202356
0.74728493366
0.813315267637
0.89945842843
0.986577617299
1.05470005574
1.08650088724
1.0703362061
1.00230036515
0.886951353609
0.736578272069
0.569136955814
0.405210032909
0.264516340795
0.162572506228
0.504072833034
0.584690105966
0.706366188178
0.852759751688
1.00308541536
1.13564227172
1.23150329827
1.27772840927
1.2695462353
1.21112799109
1.11482018308
0.998969333305
0.88471528764
0.792307951616
0.737584630389
0.729217305721
0.767205977613
0.842878664301
0.94039806063
1.03951426107
1.11908741974
1.16077101462
1.15221853925
1.08925877892
0.976663103032
0.827371597332
0.660311284329
0.497183071483
0.358772339935
0.261420417668
0.482889154008
0.567171326739
0.694821260483
0.848672926034
1.00687439855
1.14660649117
1.24797099417
1.29737683664
1.289839269
1.22979507351
1.13029335736
1.01070230813
0.893328839024
0.799535962388
0.746029512672
0.741956491095
0.78731689766
0.872963731143
0.982191157094
1.09363616318
1.18499183617
1.23688998851
1.236281513
1.17872962737
1.06921908123
0.921340945451
0.754993429783
0.59299572108
0.457199744184
0.3647715283
0.456515755466
0.544170844699
0.677502646679
0.838520430972
1.00430572904
1.15092107462
1.25749707076
1.30979166142
1.30260671681
1.24064458674
1.13765697916
1.01403374716
0.893248871321
0.797778470776
0.745196909272
0.74512620749
0.79756636543
0.892895362411
1.01353883469
1.13702066312
1.23986686714
1.30168759364
1.30873113469
1.25629514047
1.14957774076
1.00282099161
0.836894289984
0.675735102127
0.542261896583
0.454465403786
0.424975864677
0.515165824505
0.653341448812
0.82068730594
0.993218383648
1.14587893629
1.25682837967
1.31117367261
1.30350330511
1.23878519456
1.13147364964
1.00298018896
0.877945860483
0.779959890121
0.727465170923
0.730558743028
0.789240606435
0.893413721006
1.0246351937
1.15931579858
1.27281448771
1.34371974247
1.35757725418
1.30941910545
1.20465680628
1.05818339784
0.891839464346
0.730680751427
0.59869227133
0.514689455711
0.38842999049
0.479941247023
0.621747119767
0.794207475842
0.972270759302
1.12976294511
1.24387226184
1.29905468316
1.28968531889
1.22099765397
1.10814859782
0.973571334586
0.843073979572
0.741358865503
0.687737414722
0.692781686824
0.756491681809
0.868295340081
1.0088812393
1.15354704674
1.27648464709
1.35526085622
1.37471876469
1.32962488757
1.22560411504
1.07820047344
0.910225734183
0.747853922312
0.616136593771
0.534713881442
0.34720363362
0.438680671687
0.582761277698
0.758980617548
0.941220591591
1.10218889539
1.2181025703
1.27276660484
1.26034272863
1.18632999417
1.06658791161
0.924571330647
0.78725543393
0.680455660984
0.624351963448
0.629991420377
0.697374031769
0.815452718571
0.964047529145
1.11734302397
1.24836402038
1.3336556687
1.35735845877
1.31397333808
1.20933857703
1.05964918709
0.888688126898
0.723747700906
0.590946008751
0.51074788454
0.301794144134
0.391995496599
0.537109368741
0.715846225229
0.901021422718
1.06422437737
1.18070094333
1.23360512395
1.21688526866
1.13630599752
1.00842942143
0.857732055592
0.712356150035
0.599230251076
0.53940283965
0.544396014268
0.614209774931
0.737322023127
0.892684277921
1.05336799299
1.19123091832
1.2817965387
1.30850274323
1.26558491185
1.15909469512
1.0058780897
0.830689241452
0.661938734201
0.526811211295
0.446596208067
0.252854848642
0.340886988708
0.486140600184
0.666501446514
0.853718340652
1.01826241937
1.13440834957
1.18465914947
1.16274978831
1.07471045369
0.937805857267
0.777534179765
0.623204738572
0.502859186803
0.438414534688
0.4418679002
0.513219283337
0.64047156613
0.801707738346
0.968886146871
1.11269747432
1.20764353996
1.23645963215
1.19311556327
1.08387636409
0.926239016396
0.745928853281
0.572474737974
0.434127857521
0.353002448478
0.201158423457
0.286646907155
0.431665813995
0.613276206198
0.802160353015
0.967671111823
1.08311196231
1.13033493752
1.10286162651
1.00698778444
0.860680723717
0.69046029058
0.526802869782
0.398863221232
0.32942688446
0.330965996895
0.403480558538
0.534498431958
0.701234077627
0.874532735634
1.02391802123
1.12287008816
1.15342162405
1.10927687371
0.996914248092
0.834481714155
0.648675792208
0.470143624877
0.328202942906
0.245792684079
0.147545010453
0.230713094869
0.375720554161
0.558803749322
0.749578405905
0.916279101891
1.03123812974
1.07565653735
1.04284253358
0.939357441159
0.783871173214
0.603925241529
0.431163098211
0.295852609968
0.221647845626
0.221495962071
0.295396959304
0.430403680438
0.602862056647
0.782504221223
0.937686722059
1.04086804737
1.07337828403
1.02865610931
0.913393314355
0.74638885126
0.555310427568
0.371923465297
0.226612238897
0.143140387372
0.0928631515331
0.174504142973
0.320293461021
0.505642765447
0.699101238103
0.867785177572
0.98305568909
1.02546283541
0.988101445183
0.87779840871
0.713926239854
0.525048115927
0.343974556395
0.202086534764
0.123906649157
0.122857075919
0.198937815049
0.338726690203
0.517701103258
0.704480080709
0.866253103088
0.974456993084
1.00971923683
0.965212944037
0.847843286043
0.677060200097
0.481502580965
0.294054130062
0.146165665537
0.0624255276205
0.0379128102121
0.119260803568
0.267066075265
0.455915583847
0.653291967466
0.825193245311
0.94200933539
0.983639315305
0.942964633519
0.827077747886
0.65605377301
0.459477551732
0.271326670879
0.124095210752
0.0431742987722
0.0424611307417
0.121955706661
0.267760830726
0.454485375518
0.649635260736
0.81923289955
0.933693449123
0.972941794847
0.929885478872
0.811643052731
0.638315438826
0.439512719146
0.249236874502
0.100005266744
0.0172309373275
