# vtk DataFile Version 2.0
Function: z = f(x,y,z)
ASCII
DATASET STRUCTURED_POINTS
DIMENSIONS 30 30 1
ORIGIN 0 0 0
SPACING 0.05 0.05 0.05
POINT_DATA 900
SCALARS density float
LOOKUP_TABLE default
0.0748864007675
0.16752288173
0.259691683671
0.349999321758
0.436967690741
0.519133317678
0.595150250282
0.66388043575
0.72445752235
0.776314508837
0.819171799151
0.852988932891
0.87788939631
0.894072415142
0.901727713554
0.900968534683
0.891794878528
0.874093501954
0.847674680792
0.81233918931
0.767963541254
0.714588197025
0.652492752682
0.582244209472
0.504708919126
0.421024934446
0.33253820772
0.240712211892
0.147025052208
0.0528702135033
0.130719233523
0.222411609547
0.315786020233
0.408681155467
0.498625921039
0.583115687328
0.659900293251
0.72723559638
0.784056580668
0.830043497421
0.865570896098
0.891549522134
0.909189441739
0.919726221456
0.924158216179
0.923040928538
0.916374358534
0.903603003535
0.883728508648
0.85551530733
0.817753333371
0.769531841337
0.710476281768
0.640906403357
0.561887222152
0.475162880581
0.382983539728
0.287853829212
0.192244843244
0.0983178919385
0.186266262433
0.278328247435
0.374221980782
0.471018327081
0.56525320316
0.653380822718
0.732246815876
0.799500950584
0.853879546475
0.895310107411
0.924821328369
0.944275160618
0.955968250326
0.962172504845
0.964694909795
0.964533227301
0.961687457365
0.955159837858
0.943143383163
0.923366185927
0.893531599982
0.851777674059
0.79707571318
0.729498213486
0.65030885534
0.561857870795
0.46729962973
0.370179918443
0.273962820109
0.18157747012
0.24067591343
0.33395199477
0.433209538136
0.534751582858
0.6341210568
0.726731016985
0.808522884737
0.876540338381
0.929321033234
0.967039725712
0.991379256307
1.00515278213
1.0117435293
1.01445974598
1.01591704851
1.01755545852
1.01937497601
1.01993557935
1.01662165221
1.00612494641
0.985062235841
0.950620363386
0.901116488557
0.836375854936
0.757860807208
0.668527667046
0.572435013127
0.474169788429
0.378189065086
0.28818980377
0.293044899976
0.387772738422
0.490631752577
0.597157156491
0.701898889067
0.799228850648
0.884184253763
0.953202687114
1.0046231417
1.03886762649
1.05827312749
1.06660400765
1.06833007305
1.06779591266
1.06842577355
1.07210193684
1.07882440252
1.08671088948
1.09233715066
1.09135859707
1.07930542264
1.05241326442
1.00834513641
0.946679029635
0.869075953093
0.779098318085
0.681708912082
0.58253583474
0.487029147159
0.399653635286
0.342478877494
0.438259871401
0.544321754699
0.655431916162
0.765147305726
0.866798667059
0.954519003892
1.0241398153
1.07380142797
1.10417310343
1.11824597319
1.12073560605
1.11719838804
1.11301524893
1.11241906653
1.11773438145
1.12896119368
1.14377496262
1.15794281047
1.16608380744
1.16264156751
1.14290052189
1.10386953905
1.04487935747
0.967789650469
0.87676891897
0.777684159238
0.677204627608
0.581773374143
0.496623010069
0.388155319587
0.484038295268
0.592351874023
0.707095619345
0.820833492211
0.925855079608
1.01538917647
1.08466119226
1.13161278933
1.15716048176
1.1649495466
1.16064675847
1.15089508335
1.14211179184
1.13933839247
1.14534168532
1.16012167042
1.18091154765
1.20266980848
1.21897918234
1.22319670321
1.2096555965
1.17471058514
1.11744515508
1.03991764393
0.946902642254
0.845171355106
0.742434195501
0.646127202465
0.562250812502
0.42937874954
0.524042145205
0.633285857626
0.750341625019
0.866780419396
0.973850671067
1.06387696617
1.13147862454
1.17439864422
1.19380079184
1.19398448997
1.18156771905
1.16428002504
1.14957501934
1.1433028412
1.14867255021
1.16568414638
1.1911285701
1.21915568213
1.24231187107
1.25286759097
1.24420486137
1.21202425971
1.15516201937
1.07587514229
0.979544308639
0.873844932285
0.767528582915
0.669024288518
0.585100310876
0.465619730185
0.557620578072
0.666351456397
0.784276278097
0.901973026224
1.00964897441
1.09872449999
1.16321283318
1.2006583077
1.21247194275
1.2036073064
1.18163358494
1.15536690428
1.13329721663
1.12208329195
1.12537644935
1.14317668883
1.17183269129
1.20468568676
1.23324572302
1.24869667417
1.24346935393
1.2126101942
1.15470817582
1.07221896504
0.971129331659
0.860018898336
0.748680391439
0.646535827917
0.561121294834
0.496531760761
0.58457819189
0.69150436714
0.809006374169
0.926669207065
1.03365898278
1.12049186986
1.18057500889
1.21125406929
1.21418732278
1.19498248298
1.162159942
1.1256224057
1.09489616711
1.07744862692
1.07737336374
1.09467037755
1.12524608976
1.16163309968
1.19430511429
1.21335942772
1.21027564785
1.17944606108
1.11921239568
1.03222898222
0.92508868013
0.807275320859
0.689622787455
0.582546085831
0.494349128327
0.521943977009
0.605143877996
0.709373236784
0.825560315757
0.942297120038
1.0477086099
1.1314067451
1.18619257659
1.20921310946
1.20237386802
1.17193671137
1.12737323748
1.07967273216
1.03939782925
1.01482456018
1.01048876301
1.02639043777
1.05799374635
1.09702265735
1.13291453692
1.15468009924
1.15284774636
1.12115561916
1.05769819335
0.965328463828
0.851245379642
0.725836981038
0.600978307742
0.48807735463
0.396205859321
0.541831653129
0.619874203043
0.721095924441
0.835657254427
0.951157209163
1.05467959224
1.13493215462
1.18410985764
1.19916104207
1.18223848476
1.14025819034
1.08364296261
1.02446866734
0.974334279187
0.942324460283
0.933417308217
0.947612822989
0.979932907014
1.02129289815
1.06009382175
1.08425981203
1.08336806521
1.05050257665
0.983510569505
0.885443702993
0.764107015782
0.630792756915
0.498417122798
0.379381097268
0.283524243223
0.556270252941
0.629508651937
0.7280759361
0.841364717254
0.955981022599
1.05796749905
1.13512768877
1.17905046347
1.1864854996
1.15983282658
1.10666259454
1.03834881313
0.96805392807
0.90841325482
0.869320086246
0.85619477943
0.869037334374
0.902427393993
0.946471665424
0.988534833205
1.01545445161
1.015856511
0.982170861238
0.911997472909
0.808586669559
0.680349579477
0.539482660502
0.399943265717
0.275125367924
0.175636355298
0.565381525506
0.634802293122
0.731701659588
0.844704411449
0.959423586942
1.0608606763
1.1359150129
1.17556937882
1.1763747862
1.140978517
1.07760486689
0.998579051333
0.918150096015
0.84998965721
0.804799658505
0.788442716479
0.800918831132
0.836365385885
0.88408045715
0.930392388654
0.961052154715
0.963734539862
0.930215248429
0.857846998458
0.75007877781
0.615927804396
0.468494744851
0.322778108938
0.19316485842
0.0910302067516
0.56928141337
0.636365232366
0.733077363895
0.847274769223
0.963577497623
1.06594588266
1.14037504889
1.17724168879
1.17289815017
1.13023896756
1.05814258213
0.969885415187
0.880803072374
0.805603550773
0.755797404696
0.737689510219
0.751279867341
0.790263599988
0.843130153847
0.895171531833
0.93105212831
0.937495521969
0.905623271629
0.832540842776
0.721895887588
0.583311713601
0.430793196246
0.280380001964
0.147452081481
0.0441524735302
0.568039120671
0.6345369435
0.732812792542
0.849955803787
0.969593037546
1.0746436707
1.15019861902
1.18602848535
1.17828695319
1.13011580962
1.05104764132
0.955310075443
0.859325297585
0.778837645639
0.726166304643
0.708058410166
0.724513962207
0.768785825199
0.828554814103
0.888076591023
0.930928970367
0.94288432499
0.914410068194
0.842364412909
0.730593675633
0.589327253525
0.433474230811
0.280115430611
0.145623792614
0.0429101808319
0.561654647411
0.629317426522
0.730907945529
0.852747515143
0.977470206713
1.08695404044
1.1653857233
1.20192976851
1.19254119526
1.14060904317
1.05632004446
0.954853032101
0.853716771649
0.769691941809
0.715906358344
0.699549416318
0.720621115731
0.771932061519
0.840354437919
0.909107566224
0.960682680886
0.979900948925
0.956575638123
0.887317708858
0.776172141945
0.633974424166
0.476537848545
0.321984394878
0.187679991819
0.0873033286567
0.55005878945
0.620367207603
0.726753079334
0.854769890077
0.986058722216
1.10145643927
1.18424553943
1.22298444629
1.21342951471
1.15921703686
1.07118789049
0.965472114412
0.860665054126
0.774583729152
0.721164585977
0.708039279162
0.735207808706
0.79503852005
0.873594966705
0.953060129155
1.01483866189
1.04280052611
1.02610484406
0.961115323574
0.852075609784
0.710427279095
0.552887833325
0.398620408952
0.26598392359
0.169424891806
0.533135604241
0.607076180975
0.719243924969
0.85442449638
0.993265988627
1.11556410856
1.20369714555
1.24561743359
1.23688266321
1.18137637915
1.09059360467
0.981615584402
0.874124243821
0.786972943252
0.734906759907
0.725999607841
0.760251487055
0.829588483493
0.919265519942
1.01042923608
1.08339770643
1.12108968636
1.1120101526
1.05227556044
0.946328219308
0.806215795246
0.649559998868
0.496565123326
0.3665830752
0.274828194334
0.510763342725
0.588689278194
0.706992094607
0.849689626839
0.996436979349
1.1259887023
1.21981887629
1.26527374566
1.25771233665
1.20126544653
1.10808224408
0.996195179785
0.886372759064
0.798504683054
0.748144659692
0.743808862531
0.785497291569
0.864693773255
0.965844599653
1.06906006962
1.15357167775
1.20134697355
1.20023678824
1.14611032455
1.04360855623
0.905385238953
0.74996629212
0.598597165565
0.471622754829
0.385025225036
0.48286654108
0.564467014355
0.688594082256
0.83849775438
0.992840146223
1.12933465127
1.22855114133
1.2772297711
1.27053090252
1.21283258541
1.11693813407
1.00183120481
0.88936688302
0.80047121064
0.751506526332
0.751431263145
0.800245421078
0.888990567083
1.0013043625
1.11626076538
1.21200469035
1.26955248108
1.27610082329
1.22727166714
1.12790465071
0.991259619288
0.83676670107
0.686712502571
0.562434908296
0.480683908646
0.449469925107
0.533852822803
0.662912028807
0.819129727437
0.980175045228
1.12272021899
1.22643091172
1.27744118852
1.27071274698
1.21087088949
1.11137307587
0.992154168274
0.876155832026
0.78534044989
0.736878991251
0.740172148653
0.795219922095
0.892621619034
1.01520627009
1.14101149249
1.24709562091
1.3135237932
1.32683854954
1.28241458755
1.18529020962
1.04933135066
0.894872347676
0.745240963849
0.622768072649
0.544971489756
0.410744359065
0.496617812202
0.62931728733
0.790557143488
0.957013518248
1.10431749174
1.21123051817
1.26328057301
1.25523068953
1.1919534227
1.08756037782
0.962937622895
0.842113403212
0.748086442341
0.698836340393
0.704206049404
0.764195569376
0.86896194827
1.00052558598
1.13588775892
1.25102022182
1.32503690668
1.34382620818
1.30251557137
1.20634196296
1.06977740749
0.914060450754
0.763560012619
0.641599955515
0.566465920401
0.367036343716
0.452957384532
0.58785416102
0.752673206944
0.92309767091
1.07371747637
1.18238986874
1.23403673385
1.22322244068
1.15506679673
1.04433555283
0.912865982823
0.785772911943
0.687091404575
0.635609691553
0.641612984413
0.705101283152
0.815789376239
0.954889032837
1.09836518856
1.22110301818
1.30126524785
1.32408612674
1.28444584734
1.1877800407
1.04916682095
0.890748942704
0.737936482499
0.615046291729
0.541131836631
0.318875316227
0.403522382932
0.539294898991
0.70637157289
0.879442564272
1.03205663991
1.14116683642
1.19108895003
1.17618868537
1.10183310251
0.983442097804
0.843804150917
0.70912066705
0.604463051394
0.54942816551
0.554743480426
0.620408996143
0.735697241632
0.881011355332
1.03127993205
1.16030156659
1.24528777928
1.27081867377
1.23152719
1.13304762332
0.991064177515
0.828623815966
0.6721777719
0.547035885673
0.473019448801
0.266956753312
0.349378672219
0.485075754162
0.653458882348
0.828225227459
0.981882399592
1.09047922656
1.13772541497
1.11778800514
1.03628130968
0.909279370479
0.760521873029
0.617296802488
0.505711904857
0.446172672423
0.449848835709
0.516740394717
0.63567761892
0.786255016035
0.942364840058
1.07671910584
1.16557812786
1.19286786426
1.15297400243
1.05172950204
0.905424656477
0.738010637939
0.576979836326
0.448635080955
0.373565488622
0.21210318137
0.291901350833
0.427124397015
0.596415377844
0.772478475039
0.926780142019
1.0344649978
1.07863665936
1.05326350272
0.964207093023
0.828195617677
0.669919968018
0.517754709157
0.398843927907
0.334401747277
0.336040157289
0.403759157942
0.525946759215
0.6813888381
0.842941307782
0.982229603152
1.07456283287
1.10321280954
1.062317968
0.957909932241
0.806885085285
0.634098808114
0.468084647308
0.336138421149
0.259617071709
0.155208944975
0.232621025764
0.367607696955
0.538044191197
0.715641701246
0.870825523841
0.977836069205
1.01917086469
0.988599621998
0.892231158837
0.747447808118
0.57989166702
0.419023880609
0.293024876508
0.223917408454
0.22375572596
0.292539829028
0.418215468141
0.578759889565
0.745992665676
0.890452651408
0.986497749582
1.01674562729
0.975087466814
0.867753556464
0.712246368881
0.534325493845
0.363565634617
0.228255598439
0.150520152662
0.0971773306689
0.173047810142
0.3086425937
0.481069088712
0.661045498972
0.817955964542
0.925136686846
0.964479103619
0.929554262233
0.82671823296
0.674007494227
0.498015349048
0.329289522445
0.197046782852
0.12411851473
0.123001227089
0.19369491993
0.32370308424
0.490194335562
0.663951905459
0.814428068911
0.915029522902
0.947719789007
0.906142796952
0.796727499366
0.637582458514
0.455371472972
0.280710402679
0.14288104384
0.0647759890845
0.038859912517
0.114502504592
0.252019114432
0.427749324132
0.61141834852
0.771369170981
0.880033784144
0.918697536118
0.880732809957
0.77274292849
0.61341851566
0.430304080317
0.255033927438
0.117861166271
0.0424258119981
0.0416666331269
0.115583629657
0.251238033082
0.424989828218
0.606585905819
0.764391960907
0.870863484632
0.90730985305
0.867127743333
0.756944772429
0.595475592226
0.410288210095
0.233039642653
0.0940046750697
0.0168437252527
