# vtk DataFile Version 2.0
Function: z = f(x,y,z)
ASCII
DATASET STRUCTURED_POINTS
DIMENSIONS 30 30 1
ORIGIN 0 0 0
SPACING 0.05 0.05 0.05
POINT_DATA 900
SCALARS density float
LOOKUP_TABLE default
0.0989877711295
0.289123162207
0.478305873798
0.663697325684
0.842286562729
1.01109243635
1.16737319188
1.30881057362
1.433639791
1.54070584148
1.62943917753
1.69975737982
1.75191199442
1.78630885153
1.8033344263
1.8032193992
1.78596377022
1.75133685891
1.69895219011
1.62840393361
1.53944054336
1.43214443867
1.30708516709
1.16541773115
1.00890692142
0.839870993594
0.661051702345
0.475430196256
0.286017430461
0.0956519851804
0.105104921173
0.293992357447
0.486306160625
0.677643661957
0.862971151014
1.0371866045
1.19570636093
1.33497753761
1.45283065738
1.54861438032
1.62309167756
1.67811777127
1.71615761113
1.73972809196
1.75086289966
1.75069361365
1.73922023395
1.7153111811
1.67693276922
1.6215681035
1.54675223426
1.4506299393
1.33243824751
1.19282849883
1.03397017038
0.859416144884
0.673750083814
0.48207401047
0.28942163528
0.100195626994
0.111178767604
0.299017296637
0.494661238965
0.692143837306
0.884408625938
1.06423270684
1.22519051175
1.36249453092
1.47357060066
1.55827104363
1.61869134961
1.65862438229
1.68274849498
1.69569164711
1.70113473529
1.70111023795
1.69561815507
1.68262600825
1.65845290086
1.61847087348
1.55800157281
1.47325213514
1.36212707071
1.22477405684
1.06376725724
0.883894181641
0.691580398314
0.494048805277
0.298355868255
0.110468344526
0.117080284048
0.303997858471
0.503099892578
0.706855540559
0.906185581396
1.09174624236
1.25527004836
1.39073486266
1.49516183499
1.56890695062
1.61539821797
1.64036614226
1.65070248041
1.65314625646
1.65302557776
1.6532738217
1.65389098828
1.65194370012
1.64210384985
1.61763241344
1.57163763397
1.49838900622
1.39445852178
1.25949019536
1.09646287724
0.911398704161
0.712565151206
0.509305991108
0.310700444883
0.124279358342
0.122672608908
0.308705237929
0.511301373023
0.721366079851
0.9277973821
1.11913063232
1.28525644863
1.41891806727
1.51673195139
1.57955774889
1.61215598682
1.62219481193
1.61877938475
1.61075979392
1.60511135754
1.60566835198
1.61243077723
1.62156435693
1.62609377299
1.61716893676
1.5856846877
1.52397287908
1.42727298383
1.29472535407
1.12971352663
0.939494265285
0.73417695191
0.525226233957
0.323744087737
0.138825447591
0.127820235431
0.31290752486
0.518937366753
0.73525073824
0.948722907712
1.14576835301
1.31443578544
1.44623381423
1.53737421595
1.58922030113
1.60786511545
1.60291444719
1.58568686048
1.56714350859
1.55590692035
1.5567122711
1.56955956082
1.5897136142
1.6085519024
1.61511327216
1.59807915932
1.54784377564
1.4583140754
1.3281267481
1.16107001716
0.965635273355
0.753773805372
0.539071135376
0.334651994973
0.151175407033
0.132398538404
0.316396371017
0.525715802483
0.748133721403
0.968502640874
1.17111616402
1.34218109534
1.47197141705
1.55629421916
1.59701647479
1.60156374828
1.58147946942
1.55029560596
1.52108437578
1.50411551846
1.50502510829
1.52381314526
1.55484355509
1.58784659821
1.60975005673
1.60702196288
1.56811888691
1.48561526446
1.3576441224
1.18839837073
0.987604027244
0.769054287427
0.548455548162
0.34095529635
0.158776643391
0.136302142569
0.31901028173
0.531419066134
0.759741295852
0.986806728687
1.19478809304
1.36805028662
1.49563266462
1.57293763048
1.60233581992
1.59258531595
1.55716718986
1.51182681301
1.47174746791
1.44884610486
1.44965969714
1.47418824474
1.51589477438
1.56286233578
1.59990764642
1.61128533494
1.58351433005
1.50783654874
1.38188135529
1.21024634626
1.00389216645
0.778453918165
0.551758872996
0.340977273141
0.159896318529
0.139450830171
0.320650644402
0.535930150266
0.769938059302
1.00348137402
1.21661194811
1.39185277247
1.51700857528
1.5870770734
1.60493256518
1.58066565227
1.52969504746
1.46997952575
1.41881343425
1.389760934
1.39025989724
1.42031032398
1.47247434196
1.53318779016
1.58515632145
1.61042116085
1.59356359556
1.52449302392
1.40033514759
1.22609224972
1.01395960212
0.781414213884
0.548404231333
0.334122651954
0.153920764209
0.141792101097
0.321287852673
0.539242342271
0.778740192903
1.01856565178
1.23664969788
1.41367341529
1.53620690519
1.59884319786
1.60496025425
1.56598119467
1.49926237342
1.42497596913
1.3625273935
1.32712801832
1.32711661481
1.36249318296
1.42491895156
1.49918254883
1.56587856305
1.60483481561
1.59869495219
1.53603585249
1.41347955557
1.23643303113
1.018326178
0.778477912099
0.53895725444
0.320979957815
0.141461399213
0.143300066821
0.320956587048
0.541450891686
0.786303515219
1.03227594956
1.25517829898
1.43384974075
1.55362574903
1.60869466755
1.60293811987
1.54911174491
1.46650953854
1.37751708296
1.30365085452
1.26176943572
1.26111249676
1.30168003763
1.37423238814
1.46191096579
1.54319929424
1.59571179126
1.60015446102
1.54377166458
1.42268177836
1.24269645867
1.01848023132
0.771193919049
0.525027417589
0.303219235022
0.124248836868
0.143970981011
0.319741175807
0.542728201406
0.792888503758
1.04496081949
1.27263437814
1.45290645018
1.56987788278
1.61733233307
1.59965508722
1.53093430283
1.43240161724
1.3286560163
1.24332504096
1.19491448446
1.19356491596
1.23927633547
1.32190817383
1.42295463778
1.51878818637
1.58480983378
1.59978794264
1.54963435536
1.42996378577
1.24699257674
1.0166198811
0.761848428378
0.508988989036
0.283302826448
0.104833494661
0.143816277578
0.31775366212
0.543286923854
0.798808420201
1.05703413249
1.28953241555
1.47145863305
1.58567900513
1.62557250237
1.59602807353
1.51246639487
1.39805674525
1.27961151411
1.18286930705
1.12798312802
1.12599444517
1.17690325849
1.26966809986
1.38413596529
1.49456824921
1.57415256218
1.59971962531
1.55584876237
1.43765102459
1.25174744139
1.01527179262
0.753068714632
0.493569852584
0.264059225148
0.0861444749049
0.142854403351
0.315108450295
0.543337420821
0.80436958382
1.06889816533
1.30637064546
1.49010048106
1.60171926529
1.63420128213
1.59293914296
1.49468604268
1.36454890168
1.23155351302
1.12354954689
1.06233721799
1.05985889344
1.11611457324
1.21916189028
1.34720062984
1.47238112174
1.56567757292
1.60198306298
1.56454439705
1.44796896372
1.25928247902
1.01685334979
0.747368119184
0.481379307086
0.248193687461
0.070982991418
0.14110292538
0.3118979806
0.543047005791
0.809814181315
1.08086997791
1.32354100098
1.50929880057
1.61854034282
1.64383522512
1.59107972151
1.47835954549
1.33271925898
1.18539805866
1.06635667933
0.999042546438
0.996298926063
1.0581258182
1.17167995678
1.31351391635
1.45366696211
1.56089989738
1.60816816025
1.57738603719
1.46265725419
1.27141221385
1.02325395003
0.746710912682
0.474456496408
0.237820230466
0.0615379344954
0.138572329143
0.308173688464
0.542508064146
0.815275548021
1.09312385553
1.34125871737
1.52930977677
1.63643937285
1.65481241646
1.59082884422
1.46390688828
1.3030287521
1.14164703594
1.01183353924
0.93868289818
0.935939277805
1.00360267812
1.12792893407
1.28382340947
1.4392143049
1.56064902009
1.61914535158
1.59528506722
1.48266823039
1.28912993024
1.03550782765
0.752172279388
0.473917554763
0.234095938329
0.0590073382582
0.135262614639
0.303935573886
0.541720595886
0.820753683937
1.10565979819
1.35952379462
1.55013340966
1.65541635541
1.66713285614
1.59218651109
1.45132807107
1.27547738103
1.10030044487
0.959980126626
0.881258273219
0.87877994867
0.952545152978
1.08790882212
1.25812910918
1.42902315012
1.56492494105
1.634914637
1.61824148717
1.50800189232
1.31243562818
1.05361498266
0.763752219301
0.479762482151
0.237020811053
0.0633912027062
0.131163296392
0.299132201439
0.540592215628
0.826115253729
1.1183035206
1.37812099749
1.57151351404
1.67517415533
1.68045845906
1.59477368708
1.44020310884
1.24960421082
1.06085640053
0.910253606612
0.826184886733
0.824196203882
0.904287558059
1.05091298627
1.23568343086
1.42230496318
1.57289817572
1.654605582
1.64534391257
1.53770590557
1.34033602333
1.07654118073
0.780375548161
0.490875144358
0.245437764468
0.0734914937186
0.12625680735
0.293671130854
0.53895560989
0.831118070698
1.13073796284
1.39665839286
1.59298328356
1.69517109305
1.69417267244
1.59789894619
1.42976570239
1.22456806904
1.02239885728
0.861663060348
0.772396946654
0.77104737816
0.857614354864
1.0156510148
1.21512108958
1.41761958593
1.58305369274
1.67662828201
1.67492756563
1.57004061915
1.37101659145
1.10239702445
0.800077995318
0.50521639752
0.257232781495
0.0871193210005
0.120524700686
0.287437957822
0.53660041688
0.83545581557
1.14256084816
1.41463774647
1.61394852652
1.71471701938
1.7074893896
1.60068022425
1.41903783006
1.19929497657
0.983757878503
0.812942593737
0.718532601403
0.717875662439
0.810971776845
0.980473183683
1.19469640382
1.41312537939
1.59345389564
1.69894918307
1.70486293492
1.60278056413
1.40215590616
1.12876512992
0.820346219401
0.520176942783
0.269700605797
0.101473470733
0.113955542487
0.280320639175
0.533313984175
0.838815226666
1.15335830562
1.43154457815
1.63379415346
1.73309623561
1.71959230259
1.60220060405
1.4070019654
1.17266679768
0.943714719231
0.762772852547
0.663171887493
0.66316048398
0.762738642007
0.943657701665
1.17258697309
1.40689933378
1.6020751654
1.71944405691
1.73292518291
1.63360029373
1.4313279114
1.15311883184
0.838552945862
0.533028896344
0.280012744318
0.113624840603
0.106553079087
0.272234846632
0.528923908879
0.840935826477
1.16278178311
1.44694226116
1.65199546303
1.74969596578
1.72978056081
1.6016711604
1.39278110859
1.14371845795
0.901216230422
0.710012613124
0.605085506656
0.605584469898
0.711509502852
0.903711046635
1.14721120064
1.39727177778
1.60715975607
1.73626708296
1.75718041442
1.66047783815
1.45642256277
1.1732600112
0.852411981058
0.541397989946
0.285706854185
0.121023013125
0.0983431990096
0.263145899688
0.523334941457
0.841661796438
1.17061489301
1.46055383886
1.66821492958
1.7641181152
1.73759550056
1.59857266055
1.37579545787
1.11180958657
0.855561472246
0.653900366611
0.543451381004
0.544264973278
0.656341143434
0.859629433618
1.11750473249
1.38311778834
1.60752217557
1.74817220013
1.77632199932
1.68204599824
1.47601209208
1.18770033078
0.860374418751
0.543674748319
0.285112891099
0.12193737497
0.0893784023706
0.253083404703
0.516553794516
0.8409769554
1.17681856044
1.47231734261
1.68236769069
1.77625492771
1.74290647192
1.59275156083
1.35586857579
1.07674085236
0.806528219758
0.594190994307
0.478001498082
0.478911087909
0.596919763789
0.811076168894
1.08310798115
1.36405488423
1.60275704893
1.75473113967
1.78989877511
1.69783071775
1.48959954933
1.19591994681
0.861897521424
0.539293540194
0.277642330036
0.115756507358
0.0797389069227
0.242145974274
0.508697475495
0.839016705648
1.18154658253
1.48240496438
1.69464433318
1.78631538496
1.74594085139
1.58445363259
1.33326462855
1.03879481636
0.754417428843
0.531203846941
0.409073603462
0.409878954207
0.533619899175
0.758444182568
1.04443227158
1.34051278525
1.59331249079
1.75641041107
1.79839564613
1.70833529584
1.49770662853
1.19845894817
0.857539772781
0.528831244118
0.263890444386
0.103094078525
0.0695300879254
0.23049510307
0.499983598475
0.836054780671
1.18512881216
1.49120267647
1.70548694877
1.79479769808
1.74725296951
1.57428932577
1.30865018551
0.998694167332
0.700007907675
0.465773852096
0.337558744139
0.338115738576
0.467444835408
0.702792879862
1.00259312839
1.31366313544
1.58041626458
1.7544938972
1.80315261465
1.71495585421
1.50178557078
1.19682569534
0.84886565273
0.513908459409
0.245533952879
0.0856829266087
0.0588765705905
0.21833913934
0.49070423474
0.832466974791
1.1880247667
1.49925371928
1.7155225009
1.80241255355
1.74763723578
1.56313677292
1.28298710224
0.95748448389
0.644428957905
0.399114034461
0.264753667837
0.265001911779
0.399858766285
0.645670177611
0.959222191479
1.28522129771
1.56586745627
1.75086440702
1.80613621267
1.7197426479
1.50397035416
1.19323788946
0.838176585438
0.496910333269
0.225041725752
0.0660756448844
0.047913861672
0.205909993234
0.481187697836
0.828678004949
1.19075556648
1.50717561654
1.72546491668
1.80997028189
1.74800038413
1.55199911135
1.25737491947
0.916361710148
0.588972927042
0.33261314494
0.192143528857
0.19211903151
0.332539652898
0.588850440305
0.916190228715
1.25715444334
1.55172964053
1.74768191861
1.80960282168
1.72504846177
1.50671016694
1.19024112219
0.828114565957
0.480575264148
0.205248564851
0.0472034385943
0.0367788227668
0.193436469771
0.471754736206
0.825100563011
1.1938258468
1.51556494697
1.73600271826
1.81825134865
1.74921482353
1.54184069346
1.23286993301
0.876474085349
0.534879997752
0.267603309623
0.12115239671
0.120983110704
0.267095451604
0.534033567722
0.875289083306
1.23134635895
1.53997854739
1.74701410545
1.81571205856
1.73312485615
1.51234851285
1.19027084067
0.821206984869
0.467522586051
0.188865747604
0.0318695285874
0.0256004802487
0.181118690259
0.462676566089
0.822076960149
1.19764901376
1.5249062116
1.7476915016
1.82788244474
1.75197833983
1.53343040003
1.21031211857
0.838732680132
0.483132335608
0.205137789014
0.0529046268351
0.0527895997334
0.204792707709
0.482557200099
0.83792749042
1.20927687465
1.53216510191
1.7504829875
1.82615703821
1.74573604087
1.52272069666
1.19523344463
0.81943133681
0.459800888546
0.178012958513
0.0222646942996
